103
	Energy:      95.5981411
S          3.24280       -0.36618       -0.87068
O          4.41727        0.14719       -1.71169
O          3.23392       -1.88320       -1.11441
O          1.78132        0.30511       -1.46923
O          3.56094       -0.06463        0.78861
O          4.69348       -3.52407        1.15745
H          5.11489       -3.89671        1.97186
H          4.60072       -2.55752        1.34912
O         -1.28896        1.76633       -0.30795
H         -0.47902        1.88708        0.24799
H         -1.08736        0.97734       -0.87120
O          5.62065        1.35380       -5.94756
H          5.56502        2.24282       -5.51494
H          4.92289        1.37468       -6.64966
O         11.34527       -0.01094       -7.01827
H         12.16828        0.17116       -6.49866
H         11.19186       -0.98292       -6.90726
O         -0.60932       -0.94319        1.49376
H          0.14367       -0.30920        1.60149
H         -0.55329       -1.23569        0.54951
O          2.94666        4.48389       -4.40157
H          3.87280        4.19877       -4.19847
H          2.49254        4.49985       -3.52179
O         -0.23676        4.80831       -5.83274
H          0.64015        4.58028       -6.23213
H         -0.01434        5.18858       -4.94586
O          7.84053       -0.95483       -6.26297
H          8.59649       -0.37940       -5.98448
H          7.31571       -1.09238       -5.43486
O         10.06344       -3.90937       -0.01695
H         11.03964       -4.03168       -0.12864
H          9.70096       -4.83001        0.02035
O          7.97221        1.66667       -3.63219
H          8.79907        1.47521       -4.14187
H          7.50523        0.79520       -3.57928
N          7.38923        0.61003       -0.59116
H          8.39236        0.86380       -0.45554
H          7.35755       -0.30949       -1.08384
H          6.96007        0.48157        0.35154
N          7.89196       -5.53299        2.56804
H          8.93552       -5.49636        2.57852
H          7.59547       -5.97674        1.67060
H          7.53748       -4.55110        2.57312
N         -0.26604        2.55190       -3.41762
H          0.39139        2.94765       -2.70914
H         -1.23897        2.78988       -3.12192
H         -0.17051        1.51215       -3.39947
N          8.31471        2.86775       -6.89559
H          9.32500        2.79437       -7.14969
H          7.82022        3.35418       -7.67636
H          8.23962        3.46878       -6.04479
N          1.91830       -2.49748        3.27417
H          2.78858       -3.05567        3.42072
H          1.99671       -2.01941        2.34921
H          1.11487       -3.16289        3.22428
N          3.93579        5.91076       -0.52431
H          4.97788        5.88244       -0.58737
H          3.63712        6.90907       -0.59244
H          3.66289        5.55918        0.42034
N          6.80070       -4.97136       -1.17919
H          7.64271       -4.98839       -1.79674
H          6.99522       -4.31550       -0.39026
H          6.67319       -5.92787       -0.78041
N          6.28611       -2.25111       -2.95132
H          7.32614       -2.29398       -2.86864
H          5.88471       -2.32545       -1.99031
H          5.97238       -3.08553       -3.49518
O          3.56836       -1.94201       -4.74078
H          4.20450       -1.18666       -4.81345
H          3.08363       -1.77766       -3.89363
O          2.60852       -0.85797       -7.62102
H          3.57615       -1.05800       -7.55530
H          2.16218       -1.68814       -7.31720
O          2.57030        1.23723       -4.36338
H          3.49350        1.38719       -4.03933
H          2.60661        1.45496       -5.32839
O          7.70124       -2.05566        1.34184
H          8.62034       -1.69095        1.39277
H          7.21395       -1.60487        2.07658
O          6.17911        2.75434        2.21736
H          7.11528        2.71874        1.89655
H          5.65623        2.30356        1.50778
O          5.30585        3.08546       -1.47074
H          6.02137        3.15628       -2.15093
H          4.47460        2.97063       -1.99622
O         10.27928        1.93179        1.40587
H         11.16691        1.70820        1.02817
H          9.90799        2.60674        0.78360
O         10.75961       -0.29826       -1.58655
H         11.66456       -0.46917       -1.95023
H         10.31133        0.24433       -2.28304
O         10.08616       -2.11666       -4.12560
H         11.06927       -2.10093       -4.24303
H          9.82423       -3.04630       -4.34352
O          0.61030        3.96322        2.61246
H          1.58309        4.12873        2.69625
H          0.51383        2.98478        2.73105
O          2.49293        2.93753        0.18047
H          3.34542        2.96465        0.68272
H          1.95480        2.25225        0.64964
O          0.84924       -3.69371       -0.08342
H          1.80517       -3.89171        0.08114
H          0.36916       -4.18789        0.62754
