[Molden Format]
[Title]
                                                                                
[Atoms] AU
 c     1    6 -.25983732626424E+01 0.77613750806531E+00 0.00000000000000E+00
 h     2    1 -.19243940658620E+01 -.11302371120510E+01 0.00000000000000E+00
 h     3    1 -.19243592760039E+01 0.17293119490885E+01 0.16509620705847E+01
 h     4    1 -.19243592760039E+01 0.17293119490885E+01 -.16509620705847E+01
 h     5    1 -.46203802248300E+01 0.77616241465574E+00 0.00000000000000E+00
[GTO]
    1 0
 s    5 1.00
 0.12384016938000E+04 0.55173650481097E-02
 0.18629004992000E+03 0.41088828555946E-01
 0.42251176346000E+02 0.18225382126490E+00
 0.11676557932000E+02 0.46828459437429E+00
 0.35930506482000E+01 0.44575817336002E+00
 s    1 1.00
 0.40245147363000E+00 0.10000000000000E+01
 s    1 1.00
 0.13090182668000E+00 0.10000000000000E+01
 p    3 1.00
 0.94680970621000E+01 0.56888332011037E-01
 0.20103545142000E+01 0.31294059336471E+00
 0.54771004707000E+00 0.76065016509135E+00
 p    1 1.00
 0.15268613795000E+00 0.10000000000000E+01
 d    1 1.00
 0.80000000000000E+00 0.10000000000000E+01
 
    2 0
 s    3 1.00
 0.13010701000000E+02 0.33485484812989E-01
 0.19622572000000E+01 0.23472187088125E+00
 0.44453796000000E+00 0.81377028525955E+00
 s    1 1.00
 0.12194962000000E+00 0.10000000000000E+01
 p    1 1.00
 0.80000000000000E+00 0.10000000000000E+01
 
    3 0
 s    3 1.00
 0.13010701000000E+02 0.33485484812989E-01
 0.19622572000000E+01 0.23472187088125E+00
 0.44453796000000E+00 0.81377028525955E+00
 s    1 1.00
 0.12194962000000E+00 0.10000000000000E+01
 p    1 1.00
 0.80000000000000E+00 0.10000000000000E+01
 
    4 0
 s    3 1.00
 0.13010701000000E+02 0.33485484812989E-01
 0.19622572000000E+01 0.23472187088125E+00
 0.44453796000000E+00 0.81377028525955E+00
 s    1 1.00
 0.12194962000000E+00 0.10000000000000E+01
 p    1 1.00
 0.80000000000000E+00 0.10000000000000E+01
 
    5 0
 s    3 1.00
 0.13010701000000E+02 0.33485484812989E-01
 0.19622572000000E+01 0.23472187088125E+00
 0.44453796000000E+00 0.81377028525955E+00
 s    1 1.00
 0.12194962000000E+00 0.10000000000000E+01
 p    1 1.00
 0.80000000000000E+00 0.10000000000000E+01
 
[MO]
 Sym=     1a   
 Ene= -.11326973227709E+02
 Spin= Alpha
 Occup= 1.000000
     1 0.99011191279072E+00
     2 0.40316729285299E-01
     3 -.31919868762601E-01
     4 0.26416819047198E-03
     5 -.74741361448767E-03
     6 0.29040753210563E-15
     7 0.31179152856260E-05
     8 -.87973785931011E-05
     9 -.59555638902473E-15
    10 -.23597250255690E-03
    11 0.58999402885085E-03
    12 -.35402152629395E-03
    13 -.38539051180809E-03
    14 0.12572291493263E-15
    15 0.23762488529156E-15
    16 -.21739191656531E-02
    17 0.60184883572752E-02
    18 0.46239671977612E-03
    19 -.13079003166796E-02
    20 0.20668174680744E-15
    21 -.16485637777436E-02
    22 0.61660296860943E-02
    23 0.38899876434702E-03
    24 0.52165506572071E-03
    25 0.93639759103258E-03
    26 -.16485637777442E-02
    27 0.61660296860935E-02
    28 0.38899876434711E-03
    29 0.52165506572120E-03
    30 -.93639759103192E-03
    31 -.16486169245287E-02
    32 0.61660372983734E-02
    33 -.11401889940138E-02
    34 -.18958807600342E-04
    35 0.11884622645947E-15
 Sym=     1a   
 Ene= -.11298810493086E+02
 Spin= Beta
 Occup= 1.000000
     1 0.99080558763053E+00
     2 0.37906380705748E-01
     3 -.30274655817594E-01
     4 0.61075420342995E-04
     5 -.17297326441039E-03
     6 -.26229593115080E-15
     7 0.30147598355941E-05
     8 -.84735005617596E-05
     9 -.13307363149103E-15
    10 0.22593680637794E-03
    11 -.56481332979371E-03
    12 0.33887652341577E-03
    13 0.36890215686713E-03
    14 -.51922614023437E-15
    15 0.30013739471424E-15
    16 -.23056629528945E-02
    17 0.58407517873240E-02
    18 0.46128875298852E-03
    19 -.13047567436956E-02
    20 0.23766005939020E-15
    21 -.17201600644317E-02
    22 0.58294315900128E-02
    23 0.37406029339831E-03
    24 0.54073589931209E-03
    25 0.92301781567902E-03
    26 -.17201600644320E-02
    27 0.58294315900125E-02
    28 0.37406029339796E-03
    29 0.54073589931245E-03
    30 -.92301781567893E-03
    31 -.17201912001570E-02
    32 0.58294470965979E-02
    33 -.11332679940637E-02
    34 0.78513651578629E-05
    35 -.19119979926837E-15
 Sym=     2a   
 Ene= -.11178787537684E+01
 Spin= Alpha
 Occup= 1.000000
     1 -.25758335287294E+00
     2 0.52194465863327E+00
     3 0.74821960041521E-01
     4 0.33299787592697E-01
     5 -.94185766876028E-01
     6 0.50164924552960E-14
     7 -.79254711232900E-03
     8 0.22410796125410E-02
     9 -.90853475939193E-15
    10 -.56058944843422E-02
    11 0.14015062371277E-01
    12 -.84091678869352E-02
    13 -.91542412977884E-02
    14 0.56136346066902E-16
    15 -.13962356223928E-14
    16 0.27689417600626E+00
    17 0.35955302011451E-01
    18 -.13189739558681E-01
    19 0.37307132752622E-01
    20 0.23376582197461E-15
    21 0.15291424449584E+00
    22 0.18789677933994E-01
    23 -.78515579339770E-02
    24 -.12478582830478E-01
    25 -.20025972704704E-01
    26 0.15291424449584E+00
    27 0.18789677933991E-01
    28 -.78515579339766E-02
    29 -.12478582830478E-01
    30 0.20025972704705E-01
    31 0.15291411492606E+00
    32 0.18789634040763E-01
    33 0.24850776458641E-01
    34 -.91718703639320E-03
    35 0.22640284736233E-15
 Sym=     2a   
 Ene= -.96933074542477E+00
 Spin= Beta
 Occup= 1.000000
     1 -.24825331826817E+00
     2 0.46917650425528E+00
     3 0.16570075028780E+00
     4 -.16421441624109E-01
     5 0.46443976372162E-01
     6 -.55498974567178E-14
     7 0.38633909566277E-02
     8 -.10928080126943E-01
     9 -.54346090988205E-14
    10 0.60258354290834E-02
    11 -.15064538197798E-01
    12 0.90387027687150E-02
    13 0.98394890848213E-02
    14 -.46582940997780E-15
    15 0.94988275031542E-15
    16 0.89438212517435E-01
    17 -.20454871369150E-01
    18 -.77776581129978E-02
    19 0.21999733580991E-01
    20 0.98366298909244E-16
    21 0.20710444167141E+00
    22 0.30238202197873E-01
    23 -.83050102263080E-02
    24 -.14136378301518E-01
    25 -.21723242819385E-01
    26 0.20710444167141E+00
    27 0.30238202197869E-01
    28 -.83050102263079E-02
    29 -.14136378301518E-01
    30 0.21723242819384E-01
    31 0.20710743310792E+00
    32 0.30239612234957E-01
    33 0.27169247804102E-01
    34 -.15947056370416E-02
    35 -.17668575266124E-15
 Sym=     3a   
 Ene= -.75602159282293E+00
 Spin= Alpha
 Occup= 1.000000
     1 -.45966707453999E-01
     2 0.68157974040453E-01
     3 0.14611323634019E+00
     4 -.14838530893772E+00
     5 0.41970503630809E+00
     6 -.19040324872321E-13
     7 -.47327051301085E-01
     8 0.13386317757707E+00
     9 -.83856532828719E-14
    10 0.10020504643456E-01
    11 -.25050717193169E-01
    12 0.15030212549713E-01
    13 0.16362254314596E-01
    14 -.25999168096202E-15
    15 -.30899761915837E-15
    16 -.41045175489581E+00
    17 -.13555376573229E+00
    18 0.92822705350352E-02
    19 -.26254165885106E-01
    20 -.38033812210791E-15
    21 0.15395183807880E+00
    22 0.27289537762988E-01
    23 -.92454696651471E-02
    24 0.40245904992055E-02
    25 -.12774125109952E-01
    26 0.15395183807883E+00
    27 0.27289537762985E-01
    28 -.92454696651480E-02
    29 0.40245904992048E-02
    30 0.12774125109954E-01
    31 0.15395303582592E+00
    32 0.27287514121475E-01
    33 0.11615083469975E-01
    34 0.11399309906665E-01
    35 -.52746435691420E-15
 Sym=     4a   
 Ene= -.65765244410608E+00
 Spin= Alpha
 Occup= 1.000000
     1 -.17218255363529E-06
     2 0.12224255175755E-05
     3 -.83587681174672E-06
     4 0.44512282724978E+00
     5 0.15736834496276E+00
     6 -.17347895581128E-08
     7 0.18648715628791E+00
     8 0.65930783771748E-01
     9 -.72680302742912E-09
    10 -.20263741617756E-01
    11 0.21806518874434E-02
    12 0.18083089730313E-01
    13 -.57494974721294E-03
    14 -.62908744278240E-10
    15 -.52240798389123E-10
    16 -.21341545432755E-05
    17 -.27916367865102E-05
    18 0.17205474664789E-01
    19 0.60828419055166E-02
    20 -.67055174531018E-10
    21 0.18198245177187E+00
    22 0.47878483202376E-01
    23 0.47262802485260E-02
    24 -.20902376129883E-02
    25 -.14493862985415E-01
    26 0.18198245408827E+00
    27 0.47878483811805E-01
    28 0.47262801631484E-02
    29 -.20902376910468E-02
    30 0.14493863080781E-01
    31 -.36396378169806E+00
    32 -.95754458175998E-01
    33 -.22488262519993E-01
    34 -.42774203223107E-03
    35 -.44561596835951E-10
 Sym=     5a   
 Ene= -.65765207276256E+00
 Spin= Alpha
 Occup= 1.000000
     1 -.24425719693383E-14
     2 0.68861474682158E-14
     3 0.11577700332732E-13
     4 0.16355831155456E-08
     5 0.57825444245077E-09
     6 0.47212038116445E+00
     7 0.68523831196967E-09
     8 0.24226138770424E-09
     9 0.19779797093683E+00
    10 -.74457597513259E-10
    11 0.80120936036754E-11
    12 0.66445503909583E-10
    13 -.21122295578251E-11
    14 0.17120490910696E-01
    15 0.14217282199318E-01
    16 -.26288053765061E-13
    17 -.28321115797588E-13
    18 0.63221198265531E-10
    19 0.22350555047956E-10
    20 0.18249069437910E-01
    21 0.31520255658577E+00
    22 0.82928669687471E-01
    23 -.11617771582021E-01
    24 -.10621744540509E-01
    25 -.12976767133390E-01
    26 -.31520255524839E+00
    27 -.82928669335606E-01
    28 0.11617771616754E-01
    29 0.10621744525148E-01
    30 -.12976767026874E-01
    31 -.13373672143400E-08
    32 -.35184914412791E-09
    33 -.82632203581725E-10
    34 -.15713538842057E-11
    35 0.12127363701142E-01
 Sym=     3a   
 Ene= -.63197812782447E+00
 Spin= Beta
 Occup= 1.000000
     1 -.15447831142555E-05
     2 0.29323423905243E-05
     3 0.43943724534805E-05
     4 0.42550824500643E+00
     5 0.15043048344681E+00
     6 0.48060855130149E-09
     7 0.18689491447104E+00
     8 0.66072811864275E-01
     9 0.21109803405301E-09
    10 -.23071767702794E-01
    11 0.44811987353392E-02
    12 0.18590568967455E-01
    13 0.26084098598105E-02
    14 0.17281952526151E-10
    15 0.19693971813311E-10
    16 0.34144253519393E-05
    17 0.74882475927644E-07
    18 0.91353648985044E-02
    19 0.32301625580136E-02
    20 0.10318479108997E-10
    21 0.18833537290716E+00
    22 0.51691888550258E-01
    23 0.62867564476567E-02
    24 -.48368465034667E-02
    25 -.13164589594023E-01
    26 0.18833537221241E+00
    27 0.51691888359577E-01
    28 0.62867564659084E-02
    29 -.48368464709727E-02
    30 0.13164589570837E-01
    31 -.37667262358496E+00
    32 -.10338761970520E+00
    33 -.21865815962073E-01
    34 0.63878580221768E-02
    35 0.12689695033479E-10
 Sym=     4a   
 Ene= -.63197789770578E+00
 Spin= Beta
 Occup= 1.000000
     1 0.15010873345632E-15
     2 -.43873449250929E-14
     3 0.14045585430885E-13
     4 -.45312360093736E-09
     5 -.16018131879429E-09
     6 0.45131874739643E+00
     7 -.19902291924286E-09
     8 -.70353832745736E-10
     9 0.19823364107173E+00
    10 0.24570120498827E-10
    11 -.47716927299327E-11
    12 -.19798427768894E-10
    13 -.27775529092676E-11
    14 0.16229464679520E-01
    15 0.18494144956670E-01
    16 -.80411501369859E-14
    17 -.33129959378126E-14
    18 -.97284979197827E-11
    19 -.34398057059819E-11
    20 0.96896899482152E-02
    21 0.32620574814907E+00
    22 0.89531754494283E-01
    23 -.85693479144682E-02
    24 -.15256725108120E-01
    25 -.10886045910591E-01
    26 -.32620574855018E+00
    27 -.89531754604390E-01
    28 0.85693479010778E-02
    29 0.15256725118421E-01
    30 -.10886045938627E-01
    31 0.40112065610630E-09
    32 0.11009481772881E-09
    33 0.23284641434308E-10
    34 -.68021198982972E-11
    35 0.11915773554210E-01
 Sym=     5a   
 Ene= -.13203971445945E+00
 Spin= Beta
 Occup= 0.000000
     1 0.39301555741619E-01
     2 -.59283296912168E-01
     3 -.18399975973444E+00
     4 -.12349183993726E+00
     5 0.34931179581459E+00
     6 -.27550232771054E-14
     7 -.98763836054898E-01
     8 0.27936444774782E+00
     9 0.11839763284683E-14
    10 0.28450856789779E-02
    11 -.71126310401142E-02
    12 0.42675453611363E-02
    13 0.46455871372461E-02
    14 -.13248322369852E-15
    15 -.12263263900555E-14
    16 -.33453566078867E+00
    17 -.13948962638352E+00
    18 0.90310074467376E-02
    19 -.25544421917387E-01
    20 0.18622893854664E-15
    21 0.10098660116353E+00
    22 0.98916280920993E-01
    23 -.70777934094400E-02
    24 0.11542443788657E-01
    25 -.48944006352278E-02
    26 0.10098660116354E+00
    27 0.98916280921015E-01
    28 -.70777934094405E-02
    29 0.11542443788657E-01
    30 0.48944006352278E-02
    31 0.10098231467702E+00
    32 0.98914409629858E-01
    33 0.91430076636118E-03
    34 0.14368222294912E-01
    35 -.23740611532690E-15
 Sym=     6a   
 Ene= -.10514437656328E+00
 Spin= Alpha
 Occup= 1.000000
     1 0.12243475912084E+00
     2 -.24191685291357E+00
     3 -.22504963679644E+01
     4 -.82219033247483E-01
     5 0.23253929495574E+00
     6 -.14470191565973E-13
     7 -.20215874331475E+00
     8 0.57173912362998E+00
     9 -.43989665658711E-13
    10 -.87964036409197E-03
    11 0.21969057363468E-02
    12 -.13172653722548E-02
    13 -.14342803003503E-02
    14 0.86917080236384E-15
    15 0.29418019568817E-14
    16 0.13088904076501E+00
    17 0.19411178236016E+01
    18 0.13088527348365E-01
    19 -.37024495230859E-01
    20 -.21782773383117E-14
    21 0.12143111215090E-01
    22 0.47701409701184E+00
    23 -.10445804155502E-02
    24 0.51481408608806E-02
    25 0.12666000340228E-02
    26 0.12143111215065E-01
    27 0.47701409701173E+00
    28 -.10445804155503E-02
    29 0.51481408608799E-02
    30 -.12666000340221E-02
    31 0.12135271397795E-01
    32 0.47695804743783E+00
    33 -.31124696631610E-02
    34 0.44167077242047E-02
    35 -.35374582929137E-15
 Sym=     6a   
 Ene= 0.16705809482554E+00
 Spin= Beta
 Occup= 0.000000
     1 0.12102885580914E+00
     2 -.11293868403512E+00
     3 -.31623560832053E+01
     4 0.25710969855282E-01
     5 -.72707347803440E-01
     6 0.23114422830566E-13
     7 0.99502588284254E-01
     8 -.28138095624238E+00
     9 0.11475717964314E-12
    10 -.12360067140125E-02
    11 0.30902344664195E-02
    12 -.18542277524070E-02
    13 -.20184098229484E-02
    14 -.46648660389914E-15
    15 -.48273265203658E-15
    16 0.21180680915773E-01
    17 0.63145520391077E+00
    18 -.26880459793099E-04
    19 0.75919575497405E-04
    20 -.48420741556112E-15
    21 -.40757814472128E-02
    22 0.12946082088854E+01
    23 -.47688271742569E-03
    24 -.65418205418939E-03
    25 -.11565278029252E-02
    26 -.40757814472106E-02
    27 0.12946082088857E+01
    28 -.47688271742556E-03
    29 -.65418205418983E-03
    30 0.11565278029258E-02
    31 -.40753817964970E-02
    32 0.12946614154752E+01
    33 0.14116482823040E-02
    34 0.13463884859011E-04
    35 -.33581116130631E-16
 Sym=     7a   
 Ene= 0.17808130293452E+00
 Spin= Alpha
 Occup= 0.000000
     1 0.64062685879931E-01
     2 -.31920849981351E-01
     3 -.19382820690502E+01
     4 0.98003298625136E-01
     5 -.27721018532320E+00
     6 -.91978608552811E-14
     7 0.33640490673652E+00
     8 -.95154664186992E+00
     9 -.54057600139843E-13
    10 0.29530187339132E-02
    11 -.73824074640511E-02
    12 0.44293887301379E-02
    13 0.48220129794007E-02
    14 -.11123415955438E-14
    15 -.78230976102453E-15
    16 -.72066736458358E-01
    17 -.10626645315383E+01
    18 -.51659301527565E-02
    19 0.14612789733889E-01
    20 0.54501640466073E-15
    21 0.13779443168833E-01
    22 0.12684542303277E+01
    23 0.46298689317591E-03
    24 -.30029870827445E-02
    25 -.97753581408915E-03
    26 0.13779443168814E-01
    27 0.12684542303276E+01
    28 0.46298689317788E-03
    29 -.30029870827437E-02
    30 0.97753581408523E-03
    31 0.13780039551206E-01
    32 0.12684441642779E+01
    33 0.20596528680141E-02
    34 -.24388244775922E-02
    35 0.43278932993844E-15
 Sym=     8a   
 Ene= 0.21363433225175E+00
 Spin= Alpha
 Occup= 0.000000
     1 0.20381713352648E-13
     2 0.38435468458116E-13
     3 -.95701094618428E-12
     4 0.32264408809587E-08
     5 0.11407085003141E-08
     6 0.31493108456774E+00
     7 0.13334012583313E-07
     8 0.47142239706106E-08
     9 0.13015194715488E+01
    10 0.14933928750904E-09
    11 -.75775265881289E-10
    12 -.73564021627753E-10
    13 -.93250624669944E-10
    14 -.26403353090144E-02
    15 -.15986743916487E-01
    16 -.24479618093882E-13
    17 0.54713872321699E-12
    18 0.12581072208334E-09
    19 0.44476695763851E-10
    20 0.12280324751341E-01
    21 -.69083224485995E-01
    22 -.17960540826765E+01
    23 0.22719742187249E-02
    24 -.14513125466973E-02
    25 0.48240694734170E-02
    26 0.69083223619183E-01
    27 0.17960540601411E+01
    28 -.22719741502216E-02
    29 0.14513125426281E-02
    30 0.48240694373759E-02
    31 0.86682558591948E-09
    32 0.22536136779633E-07
    33 0.50351121709535E-10
    34 0.46082845872597E-10
    35 0.19521045116174E-02
 Sym=     9a   
 Ene= 0.21363477769059E+00
 Spin= Alpha
 Occup= 0.000000
     1 0.19280454715781E-05
     2 -.14706625967872E-06
     3 -.63377160874752E-04
     4 0.29691927416623E+00
     5 0.10497629657407E+00
     6 -.34221712933238E-08
     7 0.12270857763680E+01
     8 0.43383401529564E+00
     9 -.14142802714587E-07
    10 0.13743603154074E-01
    11 -.69731370086292E-02
    12 -.67704661454444E-02
    13 -.85817146957315E-02
    14 0.28692266393170E-10
    15 0.17372057605479E-09
    16 -.10734868205028E-05
    17 0.41376562541629E-04
    18 0.11578149457623E-01
    19 0.40928870887422E-02
    20 -.13344432578209E-09
    21 -.39885283947117E-01
    22 -.10369368023843E+01
    23 0.31520526047611E-02
    24 -.18729216045342E-03
    25 0.16581775659874E-02
    26 -.39885285448484E-01
    27 -.10369368414176E+01
    28 0.31520526541345E-02
    29 -.18729219199774E-03
    30 -.16581776708235E-02
    31 0.79771317938705E-01
    32 0.20739207869267E+01
    33 0.46332591271085E-02
    34 0.42409373478012E-02
    35 -.21214163388565E-10
 Sym=     7a   
 Ene= 0.23761797352319E+00
 Spin= Beta
 Occup= 0.000000
     1 -.20079870342903E-05
     2 0.22918480199748E-05
     3 0.53639844131984E-04
     4 0.28450659630972E+00
     5 0.10058441026836E+00
     6 0.60311644518468E-09
     7 0.12668435093901E+01
     8 0.44787963771141E+00
     9 0.26855908815004E-08
    10 0.47782562463962E-02
    11 -.37056456887017E-04
    12 -.47411997895092E-02
    13 0.91461627932542E-03
    14 -.96268511022495E-11
    15 -.55996199088154E-11
    16 0.41285678900956E-06
    17 -.19989900969652E-04
    18 -.17461012234892E-02
    19 -.61738515094451E-03
    20 -.37027673725669E-11
    21 -.29730491693444E-01
    22 -.10586515791186E+01
    23 0.45125675966552E-02
    24 0.27340687902859E-02
    25 0.13227584699085E-02
    26 -.29730491487577E-01
    27 -.10586515717891E+01
    28 0.45125675941458E-02
    29 0.27340687815133E-02
    30 -.13227584431510E-02
    31 0.59462395882840E-01
    32 0.21172440463497E+01
    33 0.77457787201172E-02
    34 0.46127470665767E-03
    35 0.87979490191639E-11
 Sym=     8a   
 Ene= 0.23761878769511E+00
 Spin= Beta
 Occup= 0.000000
     1 -.10026888733226E-13
     2 0.39445191380891E-13
     3 0.18780152111597E-13
     4 -.56864022730415E-09
     5 -.20102148209882E-09
     6 0.30176280670968E+00
     7 -.25320098835985E-08
     8 -.89508675121195E-09
     9 0.13436835457508E+01
    10 -.95518277020901E-11
    11 0.72510916769822E-13
    12 0.94793167853203E-11
    13 -.18273406537385E-11
    14 -.48166867773840E-02
    15 -.28018772691882E-02
    16 0.69564893325554E-14
    17 0.10390515182482E-12
    18 0.34879730355004E-11
    19 0.12377564774363E-11
    20 -.18520809660483E-02
    21 -.51497230709881E-01
    22 -.18336033576461E+01
    23 0.62722909037373E-03
    24 0.21939906181418E-02
    25 0.66931113991112E-02
    26 0.51497230828725E-01
    27 0.18336033618777E+01
    28 -.62722910841177E-03
    29 -.21939906290708E-02
    30 0.66931114043977E-02
    31 -.11884247956312E-09
    32 -.42317497669897E-08
    33 -.15477117947988E-10
    34 -.92224427822330E-12
    35 0.44023292156825E-02
 Sym=     9a   
 Ene= 0.31742248807256E+00
 Spin= Beta
 Occup= 0.000000
     1 0.24510988261069E-01
     2 -.45975377715235E-01
     3 -.59162629526474E+00
     4 -.87364855439353E-01
     5 0.24711774610348E+00
     6 -.14473658397996E-13
     7 -.48399871584037E+00
     8 0.13690278495886E+01
     9 -.36978949270363E-13
    10 -.25516658004794E-02
    11 0.63795608737531E-02
    12 -.38278950732737E-02
    13 -.41671556869126E-02
    14 0.56561163365085E-15
    15 -.42795722687815E-15
    16 0.83838395914576E-01
    17 0.24620976234013E+01
    18 -.56111522026764E-02
    19 0.15871588024160E-01
    20 -.59170483603862E-15
    21 -.39249762116600E-01
    22 -.51082170104095E+00
    23 -.17018207036527E-02
    24 0.57857106794220E-02
    25 0.56112019025089E-03
    26 -.39249762116589E-01
    27 -.51082170104108E+00
    28 -.17018207036530E-02
    29 0.57857106794208E-02
    30 -.56112019025030E-03
    31 -.39248255087546E-01
    32 -.51080971829381E+00
    33 -.26180820265076E-02
    34 0.54620158529639E-02
    35 -.80503341846613E-15
 Sym=    10a   
 Ene= 0.46697893561091E+00
 Spin= Alpha
 Occup= 0.000000
     1 0.18612486910516E-01
     2 -.64625719052140E-01
     3 0.13035564067782E-01
     4 0.75774335898445E-01
     5 -.21433561965881E+00
     6 0.14725418950958E-14
     7 -.43590246126622E+00
     8 0.12329890075354E+01
     9 0.88386788272085E-14
    10 -.30874655758225E-01
    11 0.77185328061983E-01
    12 -.46310672303758E-01
    13 -.50415232111256E-01
    14 0.19954465245837E-15
    15 -.55535400326131E-15
    16 0.89339872146636E+00
    17 0.56106094369720E-02
    18 -.30083278280894E-02
    19 0.85093210742645E-02
    20 0.53737074440878E-15
    21 -.25834617882163E+00
    22 -.23080877565088E-01
    23 -.13560778545221E-01
    24 0.25707083609599E-01
    25 -.73031467293913E-02
    26 -.25834617882163E+00
    27 -.23080877565063E-01
    28 -.13560778545221E-01
    29 0.25707083609599E-01
    30 0.73031467293910E-02
    31 -.25834167955537E+00
    32 -.23075328647812E-01
    33 -.16343939664688E-02
    34 0.29923486249870E-01
    35 -.12862976615043E-15
 Sym=    11a   
 Ene= 0.51688548025761E+00
 Spin= Alpha
 Occup= 0.000000
     1 0.12899583104527E-15
     2 0.11021051233055E-13
     3 -.69380414571519E-13
     4 -.56297331531382E-10
     5 -.19916109194290E-10
     6 -.30819058696776E+00
     7 0.24073057753210E-09
     8 0.85121280686089E-10
     9 0.13179314199979E+01
    10 0.15701752573232E-10
    11 -.42230494948443E-11
    12 -.11478703078388E-10
    13 -.36884353568009E-11
    14 -.47137962905572E-01
    15 -.71966705529253E-01
    16 -.90814197964866E-14
    17 0.35774966405796E-13
    18 0.96820983445112E-11
    19 0.34245805124037E-11
    20 0.53014509780279E-01
    21 -.69319257268910E+00
    22 -.28214178647176E-01
    23 -.68191929953837E-02
    24 -.13230383822574E-01
    25 0.11357466948811E-01
    26 0.69319257253403E+00
    27 0.28214178640896E-01
    28 0.68191930048674E-02
    29 0.13230383823507E-01
    30 0.11357466953007E-01
    31 0.15507088468151E-09
    32 0.63290701029780E-11
    33 0.17182301238640E-12
    34 0.24793859965212E-11
    35 0.30131373666538E-01
 Sym=    12a   
 Ene= 0.51688580549754E+00
 Spin= Alpha
 Occup= 0.000000
     1 -.62861889412252E-06
     2 0.57955551111292E-05
     3 -.22655939707966E-04
     4 -.29056606534104E+00
     5 -.10272640637589E+00
     6 0.59703756524253E-10
     7 0.12425627339197E+01
     8 0.43929409241432E+00
     9 -.25532378941080E-09
    10 0.81058414378791E-01
    11 -.21796316851973E-01
    12 -.59262097526818E-01
    13 -.19048313714830E-01
    14 0.91324604061269E-11
    15 0.13943352212878E-10
    16 -.37091096518077E-05
    17 0.11701987901792E-04
    18 0.49982774207337E-01
    19 0.17671262627863E-01
    20 -.10271440830233E-10
    21 -.40021362082010E+00
    22 -.16285068413300E-01
    23 0.24471337434780E-01
    24 0.24045789723028E-02
    25 -.10839208103222E-01
    26 -.40021362108870E+00
    27 -.16285068424214E-01
    28 0.24471337432138E-01
    29 0.24045789671751E-02
    30 0.10839208098821E-01
    31 0.80043074386748E+00
    32 0.32582208979290E-01
    33 0.88160497132564E-03
    34 0.12804668623838E-01
    35 -.58380971046903E-11
 Sym=    10a   
 Ene= 0.54069836775808E+00
 Spin= Beta
 Occup= 0.000000
     1 0.29928474041454E-06
     2 -.25781801491799E-06
     3 -.36541271283928E-05
     4 -.28631376289961E+00
     5 -.10122374531716E+00
     6 -.25981729295662E-09
     7 0.12628482229303E+01
     8 0.44646321798736E+00
     9 0.11459620760467E-08
    10 0.78877059004614E-01
    11 -.16544148326328E-01
    12 -.62332910678286E-01
    13 -.10917331555912E-01
    14 -.45761138038983E-10
    15 -.55305099586061E-10
    16 0.53054491613545E-06
    17 -.25391003739867E-05
    18 0.22538948724906E-01
    19 0.79682577054228E-02
    20 0.20452139669176E-10
    21 -.40277947085841E+00
    22 -.24765277399522E-01
    23 0.29049825099851E-01
    24 0.59492524540723E-02
    25 -.15824533921280E-01
    26 -.40277946966469E+00
    27 -.24765277326116E-01
    28 0.29049825121355E-01
    29 0.59492524744803E-02
    30 0.15824533940271E-01
    31 0.80556362064772E+00
    32 0.49534662408537E-01
    33 -.86609483628064E-03
    34 0.83359311182651E-02
    35 0.32945269523102E-10
 Sym=    11a   
 Ene= 0.54069883968344E+00
 Spin= Beta
 Occup= 0.000000
     1 -.22911722039723E-14
     2 0.11462267435401E-13
     3 -.14110174088641E-13
     4 0.24495249008773E-09
     5 0.86586318768991E-10
     6 -.30368341934133E+00
     7 -.10804360184002E-08
     8 -.38195316058575E-09
     9 0.13394492725743E+01
    10 -.67485194437173E-10
    11 0.14154809102596E-10
    12 0.53330385334577E-10
    13 0.93403170348496E-11
    14 -.53487540104582E-01
    15 -.64642583490832E-01
    16 0.11660806944272E-13
    17 -.44128945362116E-14
    18 -.19284139104369E-10
    19 -.68169443841385E-11
    20 0.23905643737838E-01
    21 -.69763647884543E+00
    22 -.42900503591770E-01
    23 -.12567588553380E-01
    24 -.11927074956325E-01
    25 0.11098897970054E-01
    26 0.69763647953462E+00
    27 0.42900503634168E-01
    28 0.12567588503674E-01
    29 0.11927074946146E-01
    30 0.11098897942972E-01
    31 -.68920303210137E-09
    32 -.42384916671984E-10
    33 0.74281025319342E-12
    34 -.71323656384100E-11
    35 0.38508159453856E-01
 Sym=    12a   
 Ene= 0.57074975081274E+00
 Spin= Beta
 Occup= 0.000000
     1 -.18332872401334E-01
     2 0.23610054936330E-01
     3 0.16251700052496E+00
     4 0.12498826632660E+00
     5 -.35353728684043E+00
     6 0.34266084833893E-14
     7 -.41496865367532E+00
     8 0.11737539618561E+01
     9 -.18306121706763E-13
    10 -.23022124368173E-01
    11 0.57554166510521E-01
    12 -.34532042142348E-01
    13 -.37592516347913E-01
    14 0.47165419153669E-15
    15 0.14354322565931E-14
    16 0.87028665738393E+00
    17 -.99464377212812E-01
    18 -.44379913909754E-02
    19 0.12552761784088E-01
    20 -.49950645080537E-15
    21 -.31376325560795E+00
    22 -.15747019283602E-01
    23 -.13288002080988E-01
    24 0.19627813047255E-01
    25 -.10367497911475E-01
    26 -.31376325560798E+00
    27 -.15747019283592E-01
    28 -.13288002080989E-01
    29 0.19627813047256E-01
    30 0.10367497911476E-01
    31 -.31376203875457E+00
    32 -.15749570671836E-01
    33 0.36423347835230E-02
    34 0.25613883838463E-01
    35 -.99888158368250E-15
 Sym=    13a   
 Ene= 0.74424620020208E+00
 Spin= Alpha
 Occup= 0.000000
     1 -.23792129420297E+00
     2 0.15946528981247E+01
     3 -.43260441173726E+01
     4 0.18214115832069E+00
     5 -.51516498801734E+00
     6 -.10063158072320E-13
     7 -.38144330849433E+00
     8 0.10788499445356E+01
     9 -.34440919318020E-13
    10 0.24732282140419E-01
    11 -.61825542869194E-01
    12 0.37093260728775E-01
    13 0.40381541034089E-01
    14 0.15305109710105E-14
    15 0.12910715419977E-14
    16 -.52573944399787E+00
    17 0.24143220305071E+01
    18 -.67252560117487E-01
    19 0.19023060078437E+00
    20 -.22327283562921E-14
    21 -.77666103377846E-01
    22 0.61691126844371E+00
    23 0.51772232403798E-02
    24 -.52689843386272E-01
    25 -.21965832589907E-01
    26 -.77666103377867E-01
    27 0.61691126844364E+00
    28 0.51772232403766E-02
    29 -.52689843386274E-01
    30 0.21965832589905E-01
    31 -.77660933958776E-01
    32 0.61687357560986E+00
    33 0.41043847459553E-01
    34 -.40007815435276E-01
    35 -.26534835663448E-14
 Sym=    14a   
 Ene= 0.81370907019627E+00
 Spin= Alpha
 Occup= 0.000000
     1 -.19684496736639E+00
     2 0.14846978471615E+01
     3 -.43072529163653E+01
     4 -.23176677498667E+00
     5 0.65552904405538E+00
     6 -.13479323668521E-12
     7 0.41603058180532E+00
     8 -.11767012237561E+01
     9 0.23542744731778E-12
    10 -.43570027290104E-01
    11 0.10891783848971E+00
    12 -.65347811199606E-01
    13 -.71140672797100E-01
    14 0.12255275699743E-13
    15 0.20845468467157E-13
    16 0.47225897061569E+00
    17 -.50900215637100E+00
    18 0.36112634889604E-01
    19 -.10215014530192E+00
    20 -.13622325294955E-13
    21 -.85148028171590E-01
    22 0.14112570903728E+01
    23 -.60483684830707E-01
    24 -.32879030906517E-02
    25 -.10066630276442E+00
    26 -.85148028171723E-01
    27 0.14112570903732E+01
    28 -.60483684830729E-01
    29 -.32879030906837E-02
    30 0.10066630276444E+00
    31 -.85158806082026E-01
    32 0.14112887085876E+01
    33 0.10390958473484E+00
    34 0.54829966899470E-01
    35 -.10345545648262E-13
 Sym=    13a   
 Ene= 0.82555544663785E+00
 Spin= Beta
 Occup= 0.000000
     1 -.31364445257516E+00
     2 0.21947339884163E+01
     3 -.60423625419684E+01
     4 -.53826696893027E-01
     5 0.15219037038919E+00
     6 -.13610138229272E-12
     7 0.87134530089607E-01
     8 -.24635686228785E+00
     9 0.20443658748378E-12
    10 -.97177229876443E-02
    11 0.24285259794754E-01
    12 -.14567536807110E-01
    13 -.15861053640174E-01