
                                 *****************
                                 * O   R   C   A *
                                 *****************

           --- An Ab Initio, DFT and Semiempirical electronic structure package ---

                  #######################################################
                  #                        -***-                        #
                  #          Department of theory and spectroscopy      #
                  #               Directorship: Frank Neese             #
                  #        Max Planck Institute fuer Kohlenforschung    #
                  #                Kaiser Wilhelm Platz 1               #
                  #                 D-45470 Muelheim/Ruhr               #
                  #                      Germany                        #
                  #                                                     #
                  #                  All rights reserved                #
                  #                        -***-                        #
                  #######################################################


                         Program Version 4.2.1 -  RELEASE  -


 With contributions from (in alphabetic order):
   Daniel Aravena         : Magnetic Suceptibility
   Michael Atanasov       : Ab Initio Ligand Field Theory (pilot matlab implementation)
   Alexander A. Auer      : GIAO ZORA, VPT2
   Ute Becker             : Parallelization
   Giovanni Bistoni       : ED, misc. LED, open-shell LED, HFLD
   Martin Brehm           : Molecular dynamics
   Dmytro Bykov           : SCF Hessian
   Vijay G. Chilkuri      : MRCI spin determinant printing, contributions to CSF-ICE
   Dipayan Datta          : RHF DLPNO-CCSD density
   Achintya Kumar Dutta   : EOM-CC, STEOM-CC
   Dmitry Ganyushin       : Spin-Orbit,Spin-Spin,Magnetic field MRCI
   Miquel Garcia          : C-PCM Hessian, Gaussian charge scheme
   Yang Guo               : DLPNO-NEVPT2, CIM, IAO-localization
   Andreas Hansen         : Spin unrestricted coupled pair/coupled cluster methods
   Benjamin Helmich-Paris : CASSCF linear response (MC-RPA)
   Lee Huntington         : MR-EOM, pCC
   Robert Izsak           : Overlap fitted RIJCOSX, COSX-SCS-MP3, EOM
   Christian Kollmar      : KDIIS, OOCD, Brueckner-CCSD(T), CCSD density
   Simone Kossmann        : Meta GGA functionals, TD-DFT gradient, OOMP2, MP2 Hessian
   Martin Krupicka        : AUTO-CI
   Lucas Lang             : DCDCAS
   Dagmar Lenk            : GEPOL surface, SMD
   Dimitrios Liakos       : Extrapolation schemes; Compound Job, initial MDCI parallelization
   Dimitrios Manganas     : Further ROCIS development; embedding schemes
   Dimitrios Pantazis     : SARC Basis sets
   Taras Petrenko         : DFT Hessian,TD-DFT gradient, ASA, ECA, R-Raman, ABS, FL, XAS/XES, NRVS
   Peter Pinski           : DLPNO-MP2, DLPNO-MP2 Gradient
   Christoph Reimann      : Effective Core Potentials
   Marius Retegan         : Local ZFS, SOC
   Christoph Riplinger    : Optimizer, TS searches, QM/MM, DLPNO-CCSD(T), (RO)-DLPNO pert. Triples
   Tobias Risthaus        : Range-separated hybrids, TD-DFT gradient, RPA, STAB
   Michael Roemelt        : Original ROCIS implementation
   Masaaki Saitow         : Open-shell DLPNO-CCSD energy and density
   Barbara Sandhoefer     : DKH picture change effects
   Avijit Sen             : IP-ROCIS
   Kantharuban Sivalingam : CASSCF convergence, NEVPT2, FIC-MRCI
   Bernardo de Souza      : ESD, SOC TD-DFT
   Georgi Stoychev        : AutoAux, RI-MP2 NMR
   Willem Van den Heuvel  : Paramagnetic NMR
   Boris Wezisla          : Elementary symmetry handling
   Frank Wennmohs         : Technical directorship


 We gratefully acknowledge several colleagues who have allowed us to
 interface, adapt or use parts of their codes:
   Stefan Grimme, W. Hujo, H. Kruse,             : VdW corrections, initial TS optimization,
                  C. Bannwarth                     DFT functionals, gCP, sTDA/sTD-DF
   Ed Valeev, F. Pavosevic, A. Kumar             : LibInt (2-el integral package), F12 methods
   Garnet Chan, S. Sharma, J. Yang, R. Olivares  : DMRG
   Ulf Ekstrom                                   : XCFun DFT Library
   Mihaly Kallay                                 : mrcc  (arbitrary order and MRCC methods)
   Andreas Klamt, Michael Diedenhofen            : otool_cosmo (COSMO solvation model)
   Jiri Pittner, Ondrej Demel                    : Mk-CCSD
   Frank Weinhold                                : gennbo (NPA and NBO analysis)
   Christopher J. Cramer and Donald G. Truhlar   : smd solvation model
   Lars Goerigk                                  : TD-DFT with DH, B97 family of functionals
   V. Asgeirsson, H. Jonsson                     : NEB implementation
   FAccTs GmbH                                   : IRC, NEB, NEB-TS, Multilevel, MM, QM/MM, CI optimization
   S Lehtola, MJT Oliveira, MAL Marques          : LibXC Library


 Your calculation uses the libint2 library for the computation of 2-el integrals
 For citations please refer to: http://libint.valeyev.net

 Your ORCA version has been built with support for libXC version: 4.2.3
 For citations please refer to: https://tddft.org/programs/libxc/

 This ORCA versions uses:
   CBLAS   interface :  Fast vector & matrix operations
   LAPACKE interface :  Fast linear algebra routines
   SCALAPACK package :  Parallel linear algebra routines


----- Orbital basis set information -----
Your calculation utilizes the basis: def2-SVP
   F. Weigend and R. Ahlrichs, Phys. Chem. Chem. Phys. 7, 3297 (2005).

================================================================================
                                        WARNINGS
                       Please study these warnings very carefully!
================================================================================

INFO   : Checking CIS options ...

INFO   : Since TDDFT/CIS Mode == RPA_AOINTS, the TAMMDANCOFF/TDA keyword is ignored. 


WARNING: CIS/ROCIS methods need fully converged wavefunctions
  ===> : Setting SCFConvForced true
         You can overwrite this default with %scf ConvForced false 


INFO   : the flag for use of LIBINT has been found!

================================================================================
                                       INPUT FILE
================================================================================
NAME = orca.inp
|  1> !PBE0 def2-SVP tightscf engrad
|  2>         
|  3> 
|  4>         %pal nprocs 4 end
|  5>         %maxcore 2000
|  6> 
|  7>         %tddft nroots 2 iroot 1 tda false triplets true end
|  8>         
|  9> 
| 10>         *xyz 0 1
| 11>         N -4.56987673 2.61361861 -0.00009348
| 12> C -4.82505406 1.29211777 -0.00007906
| 13> C -3.34443976 3.07635812 -0.00004370
| 14> C -2.19080216 2.22815770 0.00005343
| 15> C -2.42252333 0.89301439 0.00007114
| 16> N -3.68478424 0.43182219 -0.00000049
| 17> N -3.19674993 4.41378932 -0.00013828
| 18> H -4.02735486 4.97851764 -0.00005537
| 19> H -2.29063591 4.84320782 0.00016787
| 20> O -5.91946746 0.78365311 -0.00011973
| 21> H -1.19560705 2.63664964 0.00011137
| 22> H -1.62396272 0.16306268 0.00010692
| 23> H -3.88254179 -0.55925899 0.00000939
| 24>         *
| 25>                                   ****END OF INPUT****
================================================================================

                     *******************************
                     * Energy+Gradient Calculation *
                     *******************************

---------------------------------
CARTESIAN COORDINATES (ANGSTROEM)
---------------------------------
  N     -4.569877    2.613619   -0.000093
  C     -4.825054    1.292118   -0.000079
  C     -3.344440    3.076358   -0.000044
  C     -2.190802    2.228158    0.000053
  C     -2.422523    0.893014    0.000071
  N     -3.684784    0.431822   -0.000000
  N     -3.196750    4.413789   -0.000138
  H     -4.027355    4.978518   -0.000055
  H     -2.290636    4.843208    0.000168
  O     -5.919467    0.783653   -0.000120
  H     -1.195607    2.636650    0.000111
  H     -1.623963    0.163063    0.000107
  H     -3.882542   -0.559259    0.000009

----------------------------
CARTESIAN COORDINATES (A.U.)
----------------------------
  NO LB      ZA    FRAG     MASS         X           Y           Z
   0 N     7.0000    0    14.007   -8.635815    4.939023   -0.000177
   1 C     6.0000    0    12.011   -9.118031    2.441749   -0.000149
   2 C     6.0000    0    12.011   -6.320075    5.813474   -0.000083
   3 C     6.0000    0    12.011   -4.140016    4.210608    0.000101
   4 C     6.0000    0    12.011   -4.577906    1.687553    0.000134
   5 N     7.0000    0    14.007   -6.963233    0.816026   -0.000001
   6 N     7.0000    0    14.007   -6.040982    8.340853   -0.000261
   7 H     1.0000    0     1.008   -7.610598    9.408035   -0.000105
   8 H     1.0000    0     1.008   -4.328675    9.152336    0.000317
   9 O     8.0000    0    15.999  -11.186172    1.480890   -0.000226
  10 H     1.0000    0     1.008   -2.259370    4.982546    0.000210
  11 H     1.0000    0     1.008   -3.068845    0.308144    0.000202
  12 H     1.0000    0     1.008   -7.336941   -1.056846    0.000018

--------------------------------
INTERNAL COORDINATES (ANGSTROEM)
--------------------------------
 N      0   0   0     0.000000000000     0.00000000     0.00000000
 C      1   0   0     1.345912307721     0.00000000     0.00000000
 C      1   2   0     1.309894508743   121.61624033     0.00000000
 C      3   1   2     1.431895133750   122.98805943     0.00000000
 C      4   3   1     1.355102342695   116.47890128     0.00000000
 N      5   4   3     1.343875312440   119.91669339     0.00000000
 N      3   1   2     1.345561038959   116.98865576   179.99643282
 H      7   3   1     1.004401628844   117.91025897     0.00000000
 H      7   3   1     1.002717786374   121.65836720   179.98145944
 O      2   1   3     1.206763026539   125.84869947   179.99989096
 H      4   3   1     1.075769015807   121.35879624   180.00117214
 H      5   4   3     1.081909676478   122.58403399   179.99780116
 H      6   5   4     1.010618599685   121.35521708   179.99989558

---------------------------
INTERNAL COORDINATES (A.U.)
---------------------------
 N      0   0   0     0.000000000000     0.00000000     0.00000000
 C      1   0   0     2.543405661866     0.00000000     0.00000000
 C      1   2   0     2.475341885852   121.61624033     0.00000000
 C      3   1   2     2.705889655282   122.98805943     0.00000000
 C      4   3   1     2.560772311129   116.47890128     0.00000000
 N      5   4   3     2.539556298649   119.91669339     0.00000000
 N      3   1   2     2.542741860107   116.98865576   179.99643282
 H      7   3   1     1.898044006979   117.91025897     0.00000000
 H      7   3   1     1.894862005858   121.65836720   179.98145944
 O      2   1   3     2.280451628701   125.84869947   179.99989096
 H      4   3   1     2.032908823233   121.35879624   180.00117214
 H      5   4   3     2.044512990182   122.58403399   179.99780116
 H      6   5   4     1.909792379252   121.35521708   179.99989558

---------------------
BASIS SET INFORMATION
---------------------
There are 4 groups of distinct atoms

 Group   1 Type N   : 7s4p1d contracted to 3s2p1d pattern {511/31/1}
 Group   2 Type C   : 7s4p1d contracted to 3s2p1d pattern {511/31/1}
 Group   3 Type H   : 4s1p contracted to 2s1p pattern {31/1}
 Group   4 Type O   : 7s4p1d contracted to 3s2p1d pattern {511/31/1}

Atom   0N    basis set group =>   1
Atom   1C    basis set group =>   2
Atom   2C    basis set group =>   2
Atom   3C    basis set group =>   2
Atom   4C    basis set group =>   2
Atom   5N    basis set group =>   1
Atom   6N    basis set group =>   1
Atom   7H    basis set group =>   3
Atom   8H    basis set group =>   3
Atom   9O    basis set group =>   4
Atom  10H    basis set group =>   3
Atom  11H    basis set group =>   3
Atom  12H    basis set group =>   3


           ************************************************************
           *        Program running with 4 parallel MPI-processes     *
           *              working on a common directory               *
           ************************************************************
------------------------------------------------------------------------------
                           ORCA GTO INTEGRAL CALCULATION
------------------------------------------------------------------------------

                         BASIS SET STATISTICS AND STARTUP INFO

 # of primitive gaussian shells          ...  121
 # of primitive gaussian functions       ...  227
 # of contracted shells                  ...   63
 # of contracted basis functions         ...  137
 Highest angular momentum                ...    2
 Maximum contraction depth               ...    5
 Integral package used                   ... LIBINT
 Integral threshhold            Thresh   ...  2.500e-11
 Primitive cut-off              TCut     ...  2.500e-12


------------------------------ INTEGRAL EVALUATION ----------------------------


 * One electron integrals 
 Pre-screening matrix                    ... done
 Shell pair data                         ... done (   0.000 sec)



           ************************************************************
           *        Program running with 4 parallel MPI-processes     *
           *              working on a common directory               *
           ************************************************************
-------------------------------------------------------------------------------
                                 ORCA SCF
-------------------------------------------------------------------------------

------------
SCF SETTINGS
------------
Hamiltonian:
 Density Functional     Method          .... DFT(GTOs)
 Exchange Functional    Exchange        .... PBE
   PBE kappa parameter   XKappa         ....  0.804000
   PBE mue parameter    XMuePBE         ....  0.219520
 Correlation Functional Correlation     .... PBE
   PBE beta parameter  CBetaPBE         ....  0.066725
 LDA part of GGA corr.  LDAOpt          .... PW91-LDA
 Gradients option       PostSCFGGA      .... off
 Hybrid DFT is turned on
   Fraction HF Exchange ScalHFX         ....  0.250000
   Scaling of DF-GGA-X  ScalDFX         ....  0.750000
   Scaling of DF-GGA-C  ScalDFC         ....  1.000000
   Scaling of DF-LDA-C  ScalLDAC        ....  1.000000
   Perturbative correction              ....  0.000000
   Density functional embedding theory  .... OFF
   NL short-range parameter             ....  6.900000


General Settings:
 Integral files         IntName         .... orca
 Hartree-Fock type      HFTyp           .... RHF
 Total Charge           Charge          ....    0
 Multiplicity           Mult            ....    1
 Number of Electrons    NEL             ....   58
 Basis Dimension        Dim             ....  137
 Nuclear Repulsion      ENuc            ....    358.3789222175 Eh

Convergence Acceleration:
 DIIS                   CNVDIIS         .... on
   Start iteration      DIISMaxIt       ....    12
   Startup error        DIISStart       ....  0.200000
   # of expansion vecs  DIISMaxEq       ....     5
   Bias factor          DIISBfac        ....   1.050
   Max. coefficient     DIISMaxC        ....  10.000
 Newton-Raphson         CNVNR           .... off
 SOSCF                  CNVSOSCF        .... on
   Start iteration      SOSCFMaxIt      ....   150
   Startup grad/error   SOSCFStart      ....  0.003300
 Level Shifting         CNVShift        .... on
   Level shift para.    LevelShift      ....    0.2500
   Turn off err/grad.   ShiftErr        ....    0.0010
 Zerner damping         CNVZerner       .... off
 Static damping         CNVDamp         .... on
   Fraction old density DampFac         ....    0.7000
   Max. Damping (<1)    DampMax         ....    0.9800
   Min. Damping (>=0)   DampMin         ....    0.0000
   Turn off err/grad.   DampErr         ....    0.1000
 Fernandez-Rico         CNVRico         .... off

SCF Procedure:
 Maximum # iterations   MaxIter         ....   125
 SCF integral mode      SCFMode         .... Direct
   Integral package                     .... LIBINT
 Reset frequency        DirectResetFreq ....    20
 Integral Threshold     Thresh          ....  2.500e-11 Eh
 Primitive CutOff       TCut            ....  2.500e-12 Eh

Convergence Tolerance:
 Convergence Check Mode ConvCheckMode   .... Total+1el-Energy
 Convergence forced     ConvForced      .... 1
 Energy Change          TolE            ....  1.000e-08 Eh
 1-El. energy change                    ....  1.000e-05 Eh
 Orbital Gradient       TolG            ....  1.000e-05
 Orbital Rotation angle TolX            ....  1.000e-05
 DIIS Error             TolErr          ....  5.000e-07


Diagonalization of the overlap matrix:
Smallest eigenvalue                        ... 1.075e-03
Time for diagonalization                   ...    0.002 sec
Threshold for overlap eigenvalues          ... 1.000e-08
Number of eigenvalues below threshold      ... 0
Time for construction of square roots      ...    0.001 sec
Total time needed                          ...    0.003 sec

-------------------
DFT GRID GENERATION
-------------------

General Integration Accuracy     IntAcc      ...  4.340
Radial Grid Type                 RadialGrid  ... Gauss-Chebyshev
Angular Grid (max. acc.)         AngularGrid ... Lebedev-110
Angular grid pruning method      GridPruning ... 3 (G Style)
Weight generation scheme         WeightScheme... Becke
Basis function cutoff            BFCut       ...    1.0000e-11
Integration weight cutoff        WCut        ...    1.0000e-14
Grids for H and He will be reduced by one unit

# of grid points (after initial pruning)     ...  17416 (   0.0 sec)
# of grid points (after weights+screening)   ...  16357 (   0.0 sec)
nearest neighbour list constructed           ...    0.0 sec
Grid point re-assignment to atoms done       ...    0.0 sec
Grid point division into batches done        ...    0.0 sec
Reduced shell lists constructed in    0.0 sec

Total number of grid points                  ...    16357
Total number of batches                      ...      263
Average number of points per batch           ...       62
Average number of grid points per atom       ...     1258
Average number of shells per batch           ...    53.67 (85.19%)
Average number of basis functions per batch  ...   119.97 (87.57%)
Average number of large shells per batch     ...    45.10 (84.04%)
Average number of large basis fcns per batch ...    99.97 (83.33%)
Maximum spatial batch extension              ...   8.66,  5.25, 22.17 au
Average spatial batch extension              ...   0.58,  0.52,  0.97 au

Time for grid setup =    0.054 sec

------------------------------
INITIAL GUESS: MODEL POTENTIAL
------------------------------
Loading Hartree-Fock densities                     ... done
Calculating cut-offs                               ... done
Setting up the integral package                    ... done
Initializing the effective Hamiltonian             ... done
Starting the Coulomb interaction                   ... done (   0.0 sec)
Reading the grid                                   ... done
Mapping shells                                     ... done
Starting the XC term evaluation                    ... done (   0.0 sec)
  promolecular density results
     # of electrons  =     57.997627482
     EX              =    -49.761064611
     EC              =     -1.955208936
     EX+EC           =    -51.716273548
Transforming the Hamiltonian                       ... done (   0.0 sec)
Diagonalizing the Hamiltonian                      ... done (   0.0 sec)
Back transforming the eigenvectors                 ... done (   0.0 sec)
Now organizing SCF variables                       ... done
                      ------------------
                      INITIAL GUESS DONE (   0.1 sec)
                      ------------------
--------------
SCF ITERATIONS
--------------
ITER       Energy         Delta-E        Max-DP      RMS-DP      [F,P]     Damp
               ***  Starting incremental Fock matrix formation  ***
  0   -393.9597812360   0.000000000000 0.10326027  0.00345592  0.2735374 0.7000
  1   -394.0781629008  -0.118381664819 0.06788655  0.00227525  0.1144313 0.7000
                               ***Turning on DIIS***
  2   -394.1243140105  -0.046151109727 0.08011685  0.00338931  0.0415246 0.0000
  3   -394.1969557290  -0.072641718442 0.05520182  0.00167158  0.0604407 0.0000
  4   -394.2126013161  -0.015645587143 0.01031634  0.00041758  0.0134785 0.0000
  5   -394.2134589298  -0.000857613682 0.00417512  0.00013789  0.0046040 0.0000
                      *** Initiating the SOSCF procedure ***
                           *** Shutting down DIIS ***
                      *** Re-Reading the Fockian *** 
                      *** Removing any level shift *** 
ITER      Energy       Delta-E        Grad      Rot      Max-DP    RMS-DP
  6   -394.21351139  -0.0000524652  0.000437  0.000437  0.001442  0.000051
               *** Restarting incremental Fock matrix formation ***
  7   -394.21351909  -0.0000076926  0.000146  0.000370  0.000859  0.000032
  8   -394.21351952  -0.0000004320  0.000202  0.000352  0.000520  0.000016
  9   -394.21352030  -0.0000007789  0.000056  0.000127  0.000183  0.000009
 10   -394.21352034  -0.0000000379  0.000032  0.000046  0.000071  0.000003
 11   -394.21352038  -0.0000000390  0.000016  0.000036  0.000075  0.000003
 12   -394.21352038  -0.0000000016  0.000014  0.000017  0.000033  0.000001
 13   -394.21352038  -0.0000000044  0.000003  0.000009  0.000015  0.000000
 14   -394.21352038   0.0000000005  0.000005  0.000004  0.000009  0.000000
                  ***Gradient check signals convergence***
              ***Rediagonalizing the Fockian in SOSCF/NRSCF***

               *****************************************************
               *                     SUCCESS                       *
               *           SCF CONVERGED AFTER  15 CYCLES          *
               *****************************************************

Setting up the final grid:

General Integration Accuracy     IntAcc      ...  4.670
Radial Grid Type                 RadialGrid  ... Gauss-Chebyshev
Angular Grid (max. acc.)         AngularGrid ... Lebedev-302
Angular grid pruning method      GridPruning ... 3 (G Style)
Weight generation scheme         WeightScheme... Becke
Basis function cutoff            BFCut       ...    1.0000e-11
Integration weight cutoff        WCut        ...    1.0000e-14
Grids for H and He will be reduced by one unit

# of grid points (after initial pruning)     ...  66666 (   0.0 sec)
# of grid points (after weights+screening)   ...  61833 (   0.0 sec)
nearest neighbour list constructed           ...    0.0 sec
Grid point re-assignment to atoms done       ...    0.0 sec
Grid point division into batches done        ...    0.2 sec
Reduced shell lists constructed in    0.2 sec

Total number of grid points                  ...    61833
Total number of batches                      ...      973
Average number of points per batch           ...       63
Average number of grid points per atom       ...     4756
Average number of shells per batch           ...    50.69 (80.45%)
Average number of basis functions per batch  ...   112.50 (82.12%)
Average number of large shells per batch     ...    41.87 (82.61%)
Average number of large basis fcns per batch ...    91.66 (81.47%)
Maximum spatial batch extension              ...   8.53,  5.24, 23.16 au
Average spatial batch extension              ...   0.38,  0.36,  0.54 au

Final grid set up in    0.3 sec
Final integration                            ... done (   0.1 sec)
Change in XC energy                          ...     0.000149546
Integrated number of electrons               ...    57.999966336
Previous integrated no of electrons          ...    58.002441044

----------------
TOTAL SCF ENERGY
----------------

Total Energy       :         -394.21337084 Eh          -10727.09118 eV

Components:
Nuclear Repulsion  :          358.37892222 Eh            9751.98625 eV
Electronic Energy  :         -752.59229305 Eh          -20479.07743 eV
One Electron Energy:        -1245.74624770 Eh          -33898.47877 eV
Two Electron Energy:          493.15395465 Eh           13419.40134 eV

Virial components:
Potential Energy   :         -785.10005171 Eh          -21363.65851 eV
Kinetic Energy     :          390.88668087 Eh           10636.56734 eV
Virial Ratio       :            2.00851063


DFT components:
N(Alpha)           :       28.999983167843 electrons
N(Beta)            :       28.999983167843 electrons
N(Total)           :       57.999966335686 electrons
E(X)               :      -37.886373358474 Eh       
E(C)               :       -1.976377543525 Eh       
E(XC)              :      -39.862750901999 Eh       
DFET-embed. en.    :        0.000000000000 Eh       

---------------
SCF CONVERGENCE
---------------

  Last Energy change         ...   -1.2343e-09  Tolerance :   1.0000e-08
  Last MAX-Density change    ...    1.9779e-06  Tolerance :   1.0000e-07
  Last RMS-Density change    ...    7.6226e-08  Tolerance :   5.0000e-09
  Last Orbital Gradient      ...    4.8302e-07  Tolerance :   1.0000e-05
  Last Orbital Rotation      ...    1.0410e-06  Tolerance :   1.0000e-05

             **** THE GBW FILE WAS UPDATED (orca.gbw) ****
             **** DENSITY FILE WAS UPDATED (orca.scfp) ****
             **** ENERGY FILE WAS UPDATED (orca.en.tmp) ****
             **** THE GBW FILE WAS UPDATED (orca.gbw) ****
             **** DENSITY FILE WAS UPDATED (orca.scfp) ****
----------------
ORBITAL ENERGIES
----------------

  NO   OCC          E(Eh)            E(eV) 
   0   2.0000     -19.148257      -521.0506 
   1   2.0000     -14.444185      -393.0462 
   2   2.0000     -14.421026      -392.4161 
   3   2.0000     -14.358777      -390.7222 
   4   2.0000     -10.337089      -281.2865 
   5   2.0000     -10.325924      -280.9827 
   6   2.0000     -10.308169      -280.4995 
   7   2.0000     -10.244421      -278.7649 
   8   2.0000      -1.059714       -28.8363 
   9   2.0000      -0.992817       -27.0159 
  10   2.0000      -0.966346       -26.2956 
  11   2.0000      -0.891920       -24.2704 
  12   2.0000      -0.800962       -21.7953 
  13   2.0000      -0.684140       -18.6164 
  14   2.0000      -0.670124       -18.2350 
  15   2.0000      -0.588004       -16.0004 
  16   2.0000      -0.584205       -15.8970 
  17   2.0000      -0.546878       -14.8813 
  18   2.0000      -0.515823       -14.0363 
  19   2.0000      -0.472358       -12.8535 
  20   2.0000      -0.459929       -12.5153 
  21   2.0000      -0.449198       -12.2233 
  22   2.0000      -0.413521       -11.2525 
  23   2.0000      -0.398641       -10.8476 
  24   2.0000      -0.364308        -9.9133 
  25   2.0000      -0.274257        -7.4629 
  26   2.0000      -0.266290        -7.2461 
  27   2.0000      -0.261074        -7.1042 
  28   2.0000      -0.240986        -6.5576 
  29   0.0000      -0.027564        -0.7501 
  30   0.0000       0.031467         0.8563 
  31   0.0000       0.051390         1.3984 
  32   0.0000       0.067309         1.8316 
  33   0.0000       0.101443         2.7604 
  34   0.0000       0.120125         3.2688 
  35   0.0000       0.145859         3.9690 
  36   0.0000       0.161937         4.4065 
  37   0.0000       0.204705         5.5703 
  38   0.0000       0.232064         6.3148 
  39   0.0000       0.286722         7.8021 
  40   0.0000       0.293359         7.9827 
  41   0.0000       0.309805         8.4302 
  42   0.0000       0.340046         9.2531 
  43   0.0000       0.352354         9.5880 
  44   0.0000       0.405990        11.0476 
  45   0.0000       0.417486        11.3604 
  46   0.0000       0.443422        12.0661 
  47   0.0000       0.454961        12.3801 
  48   0.0000       0.498927        13.5765 
  49   0.0000       0.520876        14.1738 
  50   0.0000       0.542139        14.7524 
  51   0.0000       0.546534        14.8719 
  52   0.0000       0.556644        15.1471 
  53   0.0000       0.587775        15.9942 
  54   0.0000       0.604198        16.4411 
  55   0.0000       0.627280        17.0692 
  56   0.0000       0.653211        17.7748 
  57   0.0000       0.674823        18.3629 
  58   0.0000       0.696310        18.9476 
  59   0.0000       0.712330        19.3835 
  60   0.0000       0.733152        19.9501 
  61   0.0000       0.773412        21.0456 
  62   0.0000       0.783441        21.3185 
  63   0.0000       0.789723        21.4895 
  64   0.0000       0.816010        22.2048 
  65   0.0000       0.823472        22.4078 
  66   0.0000       0.861430        23.4407 
  67   0.0000       0.910705        24.7816 
  68   0.0000       0.929256        25.2864 
  69   0.0000       0.960582        26.1388 
  70   0.0000       0.966768        26.3071 
  71   0.0000       1.053122        28.6569 
  72   0.0000       1.094324        29.7781 
  73   0.0000       1.099158        29.9096 
  74   0.0000       1.114705        30.3327 
  75   0.0000       1.184924        32.2434 
  76   0.0000       1.196673        32.5631 
  77   0.0000       1.230002        33.4701 
  78   0.0000       1.274374        34.6775 
  79   0.0000       1.286318        35.0025 
  80   0.0000       1.294690        35.2303 
  81   0.0000       1.301614        35.4187 
  82   0.0000       1.317521        35.8516 
  83   0.0000       1.353701        36.8361 
  84   0.0000       1.359100        36.9830 
  85   0.0000       1.481629        40.3172 
  86   0.0000       1.515676        41.2436 
  87   0.0000       1.566105        42.6159 
  88   0.0000       1.583685        43.0943 
  89   0.0000       1.649879        44.8955 
  90   0.0000       1.701055        46.2881 
  91   0.0000       1.732123        47.1335 
  92   0.0000       1.742026        47.4029 
  93   0.0000       1.776430        48.3391 
  94   0.0000       1.820652        49.5425 
  95   0.0000       1.838813        50.0367 
  96   0.0000       1.862145        50.6716 
  97   0.0000       1.875006        51.0215 
  98   0.0000       1.902223        51.7621 
  99   0.0000       1.915463        52.1224 
 100   0.0000       1.971407        53.6447 
 101   0.0000       1.979946        53.8771 
 102   0.0000       2.003101        54.5071 
 103   0.0000       2.037819        55.4519 
 104   0.0000       2.145806        58.3903 
 105   0.0000       2.165154        58.9168 
 106   0.0000       2.192731        59.6672 
 107   0.0000       2.225327        60.5542 
 108   0.0000       2.239637        60.9436 
 109   0.0000       2.320184        63.1354 
 110   0.0000       2.344353        63.7931 
 111   0.0000       2.361087        64.2485 
 112   0.0000       2.418534        65.8117 
 113   0.0000       2.474897        67.3454 
 114   0.0000       2.538305        69.0708 
 115   0.0000       2.577286        70.1315 
 116   0.0000       2.639103        71.8136 
 117   0.0000       2.646014        72.0017 
 118   0.0000       2.713788        73.8459 
 119   0.0000       2.726535        74.1928 
 120   0.0000       2.753801        74.9347 
 121   0.0000       2.762349        75.1673 
 122   0.0000       2.772827        75.4525 
 123   0.0000       2.825968        76.8985 
 124   0.0000       2.931157        79.7609 
 125   0.0000       2.947035        80.1929 
 126   0.0000       2.995252        81.5049 
 127   0.0000       3.019266        82.1584 
 128   0.0000       3.106949        84.5444 
 129   0.0000       3.151658        85.7610 
 130   0.0000       3.203916        87.1830 
 131   0.0000       3.230339        87.9020 
 132   0.0000       3.334425        90.7343 
 133   0.0000       3.510063        95.5137 
 134   0.0000       3.612724        98.3072 
 135   0.0000       3.691063       100.4389 
 136   0.0000       3.807286       103.6015 

                    ********************************
                    * MULLIKEN POPULATION ANALYSIS *
                    ********************************

-----------------------
MULLIKEN ATOMIC CHARGES
-----------------------
   0 N :   -0.228804
   1 C :    0.210458
   2 C :    0.035640
   3 C :   -0.128423
   4 C :    0.154551
   5 N :   -0.192069
   6 N :   -0.078216
   7 H :    0.147204
   8 H :    0.128476
   9 O :   -0.255826
  10 H :    0.007812
  11 H :    0.044820
  12 H :    0.154377
Sum of atomic charges:   -0.0000000

--------------------------------
MULLIKEN REDUCED ORBITAL CHARGES
--------------------------------
  0 N s       :     3.501893  s :     3.501893
      pz      :     1.285865  p :     3.700586
      px      :     1.250045
      py      :     1.164676
      dz2     :     0.003426  d :     0.026325
      dxz     :     0.004739
      dyz     :     0.003091
      dx2y2   :     0.011092
      dxy     :     0.003977
  1 C s       :     2.992208  s :     2.992208
      pz      :     0.871888  p :     2.654262
      px      :     0.843043
      py      :     0.939331
      dz2     :     0.006979  d :     0.143072
      dxz     :     0.025425
      dyz     :     0.016345
      dx2y2   :     0.043090
      dxy     :     0.051233
  2 C s       :     3.016807  s :     3.016807
      pz      :     0.864656  p :     2.854789
      px      :     1.053148
      py      :     0.936985
      dz2     :     0.005301  d :     0.092764
      dxz     :     0.014355
      dyz     :     0.019133
      dx2y2   :     0.029599
      dxy     :     0.024376
  3 C s       :     3.149873  s :     3.149873
      pz      :     1.164433  p :     2.948784
      px      :     0.875958
      py      :     0.908392
      dz2     :     0.002817  d :     0.029765
      dxz     :     0.002425
      dyz     :     0.004873
      dx2y2   :     0.009303
      dxy     :     0.010348
  4 C s       :     3.058858  s :     3.058858
      pz      :     0.912559  p :     2.730476
      px      :     0.827832
      py      :     0.990085
      dz2     :     0.003765  d :     0.056114
      dxz     :     0.010477
      dyz     :     0.009752
      dx2y2   :     0.014417
      dxy     :     0.017703
  5 N s       :     3.384908  s :     3.384908
      pz      :     1.578605  p :     3.786070
      px      :     1.089330
      py      :     1.118135
      dz2     :     0.002129  d :     0.021090
      dxz     :     0.004207
      dyz     :     0.001004
      dx2y2   :     0.007293
      dxy     :     0.006457
  6 N s       :     3.287306  s :     3.287306
      pz      :     1.702130  p :     3.776476
      px      :     1.003941
      py      :     1.070405
      dz2     :     0.001759  d :     0.014435
      dxz     :     0.000099
      dyz     :     0.002512
      dx2y2   :     0.004758
      dxy     :     0.005306
  7 H s       :     0.806767  s :     0.806767
      pz      :     0.012204  p :     0.046029
      px      :     0.021499
      py      :     0.012325
  8 H s       :     0.824042  s :     0.824042
      pz      :     0.013798  p :     0.047482
      px      :     0.022719
      py      :     0.010965
  9 O s       :     3.727528  s :     3.727528
      pz      :     1.447688  p :     4.509685
      px      :     1.392047
      py      :     1.669950
      dz2     :     0.002121  d :     0.018613
      dxz     :     0.005010
      dyz     :     0.000950
      dx2y2   :     0.005054
      dxy     :     0.005478
 10 H s       :     0.966979  s :     0.966979
      pz      :     0.006309  p :     0.025208
      px      :     0.013972
      py      :     0.004927
 11 H s       :     0.931952  s :     0.931952
      pz      :     0.004455  p :     0.023229
      px      :     0.009822
      py      :     0.008952
 12 H s       :     0.801679  s :     0.801679
      pz      :     0.011011  p :     0.043945
      px      :     0.007191
      py      :     0.025743


                     *******************************
                     * LOEWDIN POPULATION ANALYSIS *
                     *******************************

----------------------
LOEWDIN ATOMIC CHARGES
----------------------
   0 N :   -0.186683
   1 C :    0.045546
   2 C :    0.070115
   3 C :   -0.148921
   4 C :    0.072165
   5 N :    0.022184
   6 N :    0.019826
   7 H :    0.086110
   8 H :    0.079157
   9 O :   -0.225115
  10 H :    0.031404
  11 H :    0.039072
  12 H :    0.095140

-------------------------------
LOEWDIN REDUCED ORBITAL CHARGES
-------------------------------
  0 N s       :     3.206757  s :     3.206757
      pz      :     1.276204  p :     3.923562
      px      :     1.361846
      py      :     1.285512
      dz2     :     0.007365  d :     0.056364
      dxz     :     0.006425
      dyz     :     0.005388
      dx2y2   :     0.026451
      dxy     :     0.010735
  1 C s       :     2.814452  s :     2.814452
      pz      :     0.867643  p :     2.821864
      px      :     0.968029
      py      :     0.986192
      dz2     :     0.015892  d :     0.318138
      dxz     :     0.048382
      dyz     :     0.030758
      dx2y2   :     0.100893
      dxy     :     0.122213
  2 C s       :     2.823220  s :     2.823220
      pz      :     0.857026  p :     2.895219
      px      :     1.063525
      py      :     0.974668
      dz2     :     0.011663  d :     0.211446
      dxz     :     0.027595
      dyz     :     0.038071
      dx2y2   :     0.076207
      dxy     :     0.057910
  3 C s       :     2.854298  s :     2.854298
      pz      :     1.129813  p :     3.209894
      px      :     1.029693
      py      :     1.050388
      dz2     :     0.006969  d :     0.084729
      dxz     :     0.004305
      dyz     :     0.009963
      dx2y2   :     0.030616
      dxy     :     0.032876
  4 C s       :     2.845928  s :     2.845928
      pz      :     0.903140  p :     2.947221
      px      :     0.964669
      py      :     1.079412
      dz2     :     0.008636  d :     0.134685
      dxz     :     0.021376
      dyz     :     0.020099
      dx2y2   :     0.038972
      dxy     :     0.045603
  5 N s       :     3.058702  s :     3.058702
      pz      :     1.511558  p :     3.863307
      px      :     1.179963
      py      :     1.171786
      dz2     :     0.004865  d :     0.055807
      dxz     :     0.008049
      dyz     :     0.001763
      dx2y2   :     0.021959
      dxy     :     0.019171
  6 N s       :     3.018515  s :     3.018515
      pz      :     1.622241  p :     3.920082
      px      :     1.148682
      py      :     1.149159
      dz2     :     0.003307  d :     0.041576
      dxz     :     0.000152
      dyz     :     0.004809
      dx2y2   :     0.015154
      dxy     :     0.018154
  7 H s       :     0.786040  s :     0.786040
      pz      :     0.040631  p :     0.127850
      px      :     0.055048
      py      :     0.032171
  8 H s       :     0.793399  s :     0.793399
      pz      :     0.042685  p :     0.127444
      px      :     0.058823
      py      :     0.025936
  9 O s       :     3.542607  s :     3.542607
      pz      :     1.445400  p :     4.651050
      px      :     1.502376
      py      :     1.703273
      dz2     :     0.004480  d :     0.031458
      dxz     :     0.006252
      dyz     :     0.001248
      dx2y2   :     0.009273
      dxy     :     0.010205
 10 H s       :     0.893292  s :     0.893292
      pz      :     0.020300  p :     0.075304
      px      :     0.039721
      py      :     0.015283
 11 H s       :     0.892062  s :     0.892062
      pz      :     0.012776  p :     0.068866
      px      :     0.030210
      py      :     0.025879
 12 H s       :     0.779352  s :     0.779352
      pz      :     0.035949  p :     0.125508
      px      :     0.019065
      py      :     0.070494


                      *****************************
                      * MAYER POPULATION ANALYSIS *
                      *****************************

  NA   - Mulliken gross atomic population
  ZA   - Total nuclear charge
  QA   - Mulliken gross atomic charge
  VA   - Mayer's total valence
  BVA  - Mayer's bonded valence
  FA   - Mayer's free valence

  ATOM       NA         ZA         QA         VA         BVA        FA
  0 N      7.2288     7.0000    -0.2288     2.9903     2.9903     0.0000
  1 C      5.7895     6.0000     0.2105     4.4003     4.4003     0.0000
  2 C      5.9644     6.0000     0.0356     4.2833     4.2833     0.0000
  3 C      6.1284     6.0000    -0.1284     3.8360     3.8360    -0.0000
  4 C      5.8454     6.0000     0.1546     3.9394     3.9394    -0.0000
  5 N      7.1921     7.0000    -0.1921     3.2627     3.2627    -0.0000
  6 N      7.0782     7.0000    -0.0782     3.2639     3.2639     0.0000
  7 H      0.8528     1.0000     0.1472     1.0136     1.0136     0.0000
  8 H      0.8715     1.0000     0.1285     0.9986     0.9986     0.0000
  9 O      8.2558     8.0000    -0.2558     2.2567     2.2567    -0.0000
 10 H      0.9922     1.0000     0.0078     0.9978     0.9978    -0.0000
 11 H      0.9552     1.0000     0.0448     0.9856     0.9856    -0.0000
 12 H      0.8456     1.0000     0.1544     1.0005     1.0005    -0.0000

  Mayer bond orders larger than 0.100000
B(  0-N ,  1-C ) :   1.2496 B(  0-N ,  2-C ) :   1.5987 B(  1-C ,  5-N ) :   0.9563 
B(  1-C ,  9-O ) :   2.0939 B(  2-C ,  3-C ) :   1.1339 B(  2-C ,  6-N ) :   1.3248 
B(  3-C ,  4-C ) :   1.6063 B(  3-C , 10-H ) :   0.9665 B(  4-C ,  5-N ) :   1.2659 
B(  4-C , 11-H ) :   0.9600 B(  5-N , 12-H ) :   0.9126 B(  6-N ,  7-H ) :   0.9340 
B(  6-N ,  8-H ) :   0.9420 

-------
TIMINGS
-------

Total SCF time: 0 days 0 hours 0 min 6 sec 

Total time                  ....       6.741 sec
Sum of individual times     ....       6.607 sec  ( 98.0%)

Fock matrix formation       ....       6.171 sec  ( 91.5%)
  XC integration            ....       0.454 sec  (  7.4% of F)
    Basis function eval.    ....       0.144 sec  ( 31.6% of XC)
    Density eval.           ....       0.098 sec  ( 21.5% of XC)
    XC-Functional eval.     ....       0.033 sec  (  7.3% of XC)
    XC-Potential eval.      ....       0.147 sec  ( 32.4% of XC)
Diagonalization             ....       0.011 sec  (  0.2%)
Density matrix formation    ....       0.002 sec  (  0.0%)
Population analysis         ....       0.003 sec  (  0.0%)
Initial guess               ....       0.094 sec  (  1.4%)
Orbital Transformation      ....       0.000 sec  (  0.0%)
Orbital Orthonormalization  ....       0.000 sec  (  0.0%)
DIIS solution               ....       0.004 sec  (  0.1%)
SOSCF solution              ....       0.009 sec  (  0.1%)
Grid generation             ....       0.314 sec  (  4.7%)


           ************************************************************
           *        Program running with 4 parallel MPI-processes     *
           *              working on a common directory               *
           ************************************************************
------------------------------------------------------------------------------
                          ORCA TD-DFT CALCULATION
------------------------------------------------------------------------------

Input orbitals are from        ... orca.gbw
CI-vector output               ... orca.cis
Tamm-Dancoff approximation     ... deactivated
RPA-Integral strategy          ... AO-integrals
Integral handling              ... AO integral Direct
Max. core memory used          ... 2000 MB
Reference state                ... RHF
Generation of triplets         ... on
Follow IRoot                   ... off
Number of operators            ... 1
Orbital ranges used for CIS calculation:
 Operator 0:  Orbitals   8... 28  to  29...136
XAS localization array:
 Operator 0:  Orbitals  -1... -1
-------------------
XC-INTEGRATION GRID
-------------------

General Integration Accuracy     IntAcc      ...  3.670
Radial Grid Type                 RadialGrid  ... Gauss-Chebyshev
Angular Grid (max. acc.)         AngularGrid ... Lebedev-50
Angular grid pruning method      GridPruning ... 3 (G Style)
Weight generation scheme         WeightScheme... Becke
Basis function cutoff            BFCut       ...    1.0000e-11
Integration weight cutoff        WCut        ...    1.0000e-14
Grids for H and He will be reduced by one unit

# of grid points (after initial pruning)     ...   7852 (   0.0 sec)
# of grid points (after weights+screening)   ...   7434 (   0.0 sec)
nearest neighbour list constructed           ...    0.0 sec
Grid point re-assignment to atoms done       ...    0.0 sec
Grid point division into batches done        ...    0.0 sec
Reduced shell lists constructed in    0.0 sec

Total number of grid points                  ...     7434
Total number of batches                      ...      121
Average number of points per batch           ...       61
Average number of grid points per atom       ...      572
Average number of shells per batch           ...    54.44 (86.41%)
Average number of basis functions per batch  ...   121.56 (88.73%)
Average number of large shells per batch     ...    46.78 (85.94%)
Average number of large basis fcns per batch ...   104.66 (86.09%)
Maximum spatial batch extension              ...   8.49,  5.25, 28.35 au
Average spatial batch extension              ...   0.72,  0.61,  1.69 au


---------------
TD-DFT XC SETUP
---------------

DFT calculation                         ... on
Name of the grid file                   ... orca.grid_cis.tmp
Exchange functional (TD-DFT)            ... PBE
   PBE kappa parameter  XKappa (TD-DFT) ...  0.804000
   PBE mue parameter   XMuePBE (TD-DFT) ...  0.219520
Correlation functional (TD-DFT)         ... PBE
   PBE beta parameter CBetaPBE (TD-DFT) ...  0.066725
 LDA part of GGA corr.  LDAOpt (TD-DFT) ... PW91-LDA
Hybrid DFT                              ... on
   Exchange mixing (TD-DFT)             ...  0.250
   GGA exch. scaling (TD-DFT)           ...  0.750
   GGA corr. scaling (TD-DFT)           ...  1.000

Building densities             ... done
Calculating rho(r) on the grid ... done
Building xc-kernel on the grid ... done
                    *** TD-DFT CALCULATION INITIALIZED ***


-------------------
RPA-DIAGONALIZATION
-------------------

Dimension of the (A+B)(A-B) eigenvalue problem ...   2268
Number of roots to be determined               ...      2
Maximum size of the expansion space            ...     60
Convergence tolerance for the residual         ...    2.500e-07
Convergence tolerance for the energies         ...    2.500e-07
Orthogonality tolerance                        ...    1.000e-14
Constructing the preconditioner                ... o.k.
Building the initial guess                     ... o.k.
Number of trial vectors determined             ...     60


                       ****Iteration    0****

   Memory handling for direct AO based RPA:
   Memory per vector needed      ...     1 MB
   Memory needed                 ...     3 MB
   Memory available              ...  2000 MB
   Number of vectors per batch   ...  2000
   Number of batches             ...     1
   Time for densities:     0.003
   Time for XC-Integration:     0.061
   Using LibInt in JK Direct
   Time for J+K (Direct):     4.078
   Time for Sigma-Completion:     0.006
   Size of expansion space: 6
   Lowest Energy          :     0.184222683298
   Maximum Energy change  :     0.195555761152 (vector 1)
   Maximum residual norm  :     0.005844226608

                       ****Iteration    1****
   Time for densities:     0.001
   Time for XC-Integration:     0.033
   Using LibInt in JK Direct
   Time for J+K (Direct):     1.438
   Time for Sigma-Completion:     0.002
   Size of expansion space: 8
   Lowest Energy          :     0.183099858579
   Maximum Energy change  :     0.001367893025 (vector 1)
   Maximum residual norm  :     0.000972220860

                       ****Iteration    2****
   Time for densities:     0.001
   Time for XC-Integration:     0.032
   Using LibInt in JK Direct
   Time for J+K (Direct):     1.512
   Time for Sigma-Completion:     0.002
   Size of expansion space: 10
   Lowest Energy          :     0.182075844294
   Maximum Energy change  :     0.001024014284 (vector 0)
   Maximum residual norm  :     0.000166873171

                       ****Iteration    3****
   Time for densities:     0.001
   Time for XC-Integration:     0.035
   Using LibInt in JK Direct
   Time for J+K (Direct):     1.438
   Time for Sigma-Completion:     0.002
   Size of expansion space: 12
   Lowest Energy          :     0.181992263746
   Maximum Energy change  :     0.000089153878 (vector 1)
   Maximum residual norm  :     0.000024715061

                       ****Iteration    4****
   Time for densities:     0.001
   Time for XC-Integration:     0.032
   Using LibInt in JK Direct
   Time for J+K (Direct):     1.374
   Time for Sigma-Completion:     0.003
   Size of expansion space: 14
   Lowest Energy          :     0.181977721416
   Maximum Energy change  :     0.000029381728 (vector 1)
   Maximum residual norm  :     0.000015978875

                       ****Iteration    5****
   Time for densities:     0.001
   Time for XC-Integration:     0.034
   Using LibInt in JK Direct
   Time for J+K (Direct):     1.390
   Time for Sigma-Completion:     0.002
   Size of expansion space: 16
   Lowest Energy          :     0.181973667546
   Maximum Energy change  :     0.000007136675 (vector 1)
   Maximum residual norm  :     0.000001803955

                       ****Iteration    6****
   Time for densities:     0.001
   Time for XC-Integration:     0.033
   Using LibInt in JK Direct
   Time for J+K (Direct):     1.379
   Time for Sigma-Completion:     0.002
   Size of expansion space: 18
   Lowest Energy          :     0.181973268378
   Maximum Energy change  :     0.000001328981 (vector 1)
   Maximum residual norm  :     0.000001160508

                       ****Iteration    7****
   Time for densities:     0.001
   Time for XC-Integration:     0.034
   Using LibInt in JK Direct
   Time for J+K (Direct):     1.359
   Time for Sigma-Completion:     0.002
   Size of expansion space: 20
   Lowest Energy          :     0.181973112348
   Maximum Energy change  :     0.001459667028 (vector 1)
   Maximum residual norm  :     0.031471393687

                       ****Iteration    8****
   Time for densities:     0.001
   Time for XC-Integration:     0.035
   Using LibInt in JK Direct
   Time for J+K (Direct):     1.348
   Time for Sigma-Completion:     0.002
   Size of expansion space: 22
   Lowest Energy          :     0.180140153446
   Maximum Energy change  :     0.009723906812 (vector 1)
   Maximum residual norm  :     0.001331004350

                       ****Iteration    9****
   Time for densities:     0.001
   Time for XC-Integration:     0.034
   Using LibInt in JK Direct
   Time for J+K (Direct):     1.444
   Time for Sigma-Completion:     0.003
   Size of expansion space: 24
   Lowest Energy          :     0.179587150236
   Maximum Energy change  :     0.000553003211 (vector 0)
   Maximum residual norm  :     0.000450306845

                       ****Iteration   10****
   Time for densities:     0.001
   Time for XC-Integration:     0.036
   Using LibInt in JK Direct
   Time for J+K (Direct):     1.393
   Time for Sigma-Completion:     0.004
   Size of expansion space: 26
   Lowest Energy          :     0.179206068549
   Maximum Energy change  :     0.000381081687 (vector 0)
   Maximum residual norm  :     0.000080145039

                       ****Iteration   11****
   Time for densities:     0.002
   Time for XC-Integration:     0.046
   Using LibInt in JK Direct
   Time for J+K (Direct):     1.980
   Time for Sigma-Completion:     0.002
   Size of expansion space: 28
   Lowest Energy          :     0.179172694832
   Maximum Energy change  :     0.000033373717 (vector 0)
   Maximum residual norm  :     0.000007255087

                       ****Iteration   12****
   Time for densities:     0.001
   Time for XC-Integration:     0.038
   Using LibInt in JK Direct
   Time for J+K (Direct):     2.012
   Time for Sigma-Completion:     0.016
   Size of expansion space: 30
   Lowest Energy          :     0.179170497478
   Maximum Energy change  :     0.000002197353 (vector 0)
   Maximum residual norm  :     0.000004095938

                       ****Iteration   13****
   Time for densities:     0.004
   Time for XC-Integration:     0.082
   Using LibInt in JK Direct
   Time for J+K (Direct):     1.527
   Time for Sigma-Completion:     0.002
   Size of expansion space: 32
   Lowest Energy          :     0.179167727116
   Maximum Energy change  :     0.000002770363 (vector 0)
   Maximum residual norm  :     0.000000595586

                       ****Iteration   14****
   Time for densities:     0.001
   Time for XC-Integration:     0.034
   Using LibInt in JK Direct
   Time for J+K (Direct):     1.359
   Time for Sigma-Completion:     0.002
   Size of expansion space: 34
   Lowest Energy          :     0.179167519983
   Maximum Energy change  :     0.000000207132 (vector 0)

         *** CONVERGENCE OF ENERGIES REACHED ***

Storing the converged CI vectors               ... orca.cis1

                 *** DAVIDSON DONE ***

Total time for solving the RPA problem:    25.774sec

--------------------------------
TD-DFT EXCITED STATES (SINGLETS)
--------------------------------

the weight of the individual excitations are printed if larger than 0.01

STATE  1:  E=   0.179168 au      4.875 eV    39322.7 cm**-1
    28a ->  29a  :     0.970133 

STATE  2:  E=   0.181973 au      4.952 eV    39938.5 cm**-1
    25a ->  29a  :     0.375816 
    27a ->  29a  :     0.611133 


                  ********************************
                  * Entering triplet calculation *
                  ********************************

-------------------
RPA-DIAGONALIZATION
-------------------

Dimension of the (A+B)(A-B) eigenvalue problem ...   2268
Number of roots to be determined               ...      2
Maximum size of the expansion space            ...     60
Convergence tolerance for the residual         ...    2.500e-07
Convergence tolerance for the energies         ...    2.500e-07
Orthogonality tolerance                        ...    1.000e-14
Constructing the preconditioner                ... o.k.
Building the initial guess                     ... o.k.
Number of trial vectors determined             ...     60


                       ****Iteration    0****
                <<< Triplet sigma vectors requested >>>

   Memory handling for direct AO based RPA:
   Memory per vector needed      ...     1 MB
   Memory needed                 ...     2 MB
   Memory available              ...  2000 MB
   Number of vectors per batch   ...  2000
   Number of batches             ...     1
   Time for densities:     0.004
   Time for XC-Integration:     0.086
   Using LibInt in JK Direct
   Time for K (Direct):     3.548
   Time for Sigma-Completion:     0.016
   Size of expansion space: 6
   Lowest Energy          :     0.137773986893
   Maximum Energy change  :     0.165829753217 (vector 1)
   Maximum residual norm  :     0.007750926383

                       ****Iteration    1****
   Time for densities:     0.002
   Time for XC-Integration:     0.079
   Using LibInt in JK Direct
   Time for K (Direct):     1.885
   Time for Sigma-Completion:     0.002
   Size of expansion space: 8
   Lowest Energy          :     0.128095214347
   Maximum Energy change  :     0.009678772546 (vector 0)
   Maximum residual norm  :     0.001186789055

                       ****Iteration    2****
   Time for densities:     0.001
   Time for XC-Integration:     0.033
   Using LibInt in JK Direct
   Time for K (Direct):     1.185
   Time for Sigma-Completion:     0.002
   Size of expansion space: 10
   Lowest Energy          :     0.127707251236
   Maximum Energy change  :     0.000538989224 (vector 1)
   Maximum residual norm  :     0.000575831906

                       ****Iteration    3****
   Time for densities:     0.001
   Time for XC-Integration:     0.033
   Using LibInt in JK Direct
   Time for K (Direct):     1.136
   Time for Sigma-Completion:     0.002
   Size of expansion space: 12
   Lowest Energy          :     0.127152656255
   Maximum Energy change  :     0.000554594980 (vector 0)
   Maximum residual norm  :     0.000033684259

                       ****Iteration    4****
   Time for densities:     0.001
   Time for XC-Integration:     0.032
   Using LibInt in JK Direct
   Time for K (Direct):     1.165
   Time for Sigma-Completion:     0.002
   Size of expansion space: 14
   Lowest Energy          :     0.127131917786
   Maximum Energy change  :     0.000035663372 (vector 1)
   Maximum residual norm  :     0.000031126203

                       ****Iteration    5****
   Time for densities:     0.001
   Time for XC-Integration:     0.033
   Using LibInt in JK Direct
   Time for K (Direct):     1.130
   Time for Sigma-Completion:     0.002
   Size of expansion space: 16
   Lowest Energy          :     0.127115612148
   Maximum Energy change  :     0.000018695365 (vector 1)
   Maximum residual norm  :     0.000001750116

                       ****Iteration    6****
   Time for densities:     0.001
   Time for XC-Integration:     0.033
   Using LibInt in JK Direct
   Time for K (Direct):     1.152
   Time for Sigma-Completion:     0.003
   Size of expansion space: 18
   Lowest Energy          :     0.127114764939
   Maximum Energy change  :     0.000001484610 (vector 1)
   Maximum residual norm  :     0.000002143081

                       ****Iteration    7****
   Time for densities:     0.001
   Time for XC-Integration:     0.033
   Using LibInt in JK Direct
   Time for K (Direct):     1.166
   Time for Sigma-Completion:     0.002
   Size of expansion space: 20
   Lowest Energy          :     0.127114705561
   Maximum Energy change  :     0.000001423129 (vector 1)
   Maximum residual norm  :     0.000000242065

      *** CONVERGENCE OF RESIDUAL NORM REACHED ***

Storing the converged CI vectors               ... orca.cis3

                 *** DAVIDSON DONE ***

--------------------------------
TD-DFT EXCITED STATES (TRIPLETS)
--------------------------------

the weight of the individual excitations are printed if larger than 0.01

STATE  1:  E=   0.127115 au      3.459 eV    27898.5 cm**-1
    24a ->  29a  :     0.025908 
    26a ->  29a  :     0.046830 
    28a ->  29a  :     0.882793 
    28a ->  30a  :     0.022263 

STATE  2:  E=   0.155808 au      4.240 eV    34195.9 cm**-1
    26a ->  29a  :     0.880883 
    26a ->  30a  :     0.022187 
    28a ->  29a  :     0.045359 
    28a ->  30a  :     0.020793 


-------------------------
TD-DFT-EXCITATION SPECTRA
-------------------------

Center of mass = ( -7.1736,  3.7272, -0.0001)
Calculating the Dipole integrals                  ... done
Transforming integrals                            ... done
Calculating the Linear Momentum integrals         ... done
Transforming integrals                            ... done
Calculating angular momentum integrals            ... done
Transforming integrals                            ... done

-----------------------------------------------------------------------------
         ABSORPTION SPECTRUM VIA TRANSITION ELECTRIC DIPOLE MOMENTS
-----------------------------------------------------------------------------
State   Energy    Wavelength  fosc         T2        TX        TY        TZ  
        (cm-1)      (nm)                 (au**2)    (au)      (au)      (au) 
-----------------------------------------------------------------------------
   1   39322.7    254.3   0.040478142   0.33889  -0.29032   0.50458   0.00003
   2   39938.5    250.4   0.000565248   0.00466   0.00004   0.00000  -0.06826
   3   27898.5    358.4   spin forbidden (mult=3)
   4   34195.9    292.4   spin forbidden (mult=3)

-----------------------------------------------------------------------------
         ABSORPTION SPECTRUM VIA TRANSITION VELOCITY DIPOLE MOMENTS
-----------------------------------------------------------------------------
State   Energy    Wavelength   fosc        P2         PX        PY        PZ  
        (cm-1)      (nm)                 (au**2)     (au)      (au)      (au) 
-----------------------------------------------------------------------------
   1   39322.7    254.3   0.045916840   0.01234   0.05029  -0.09905   0.00004
   2   39938.5    250.4   0.000000586   0.00000  -0.00001   0.00000  -0.00040
   3   27898.5    358.4   spin forbidden (mult=3)
   4   34195.9    292.4   spin forbidden (mult=3)

-------------------------------------------------------------------
                             CD SPECTRUM
-------------------------------------------------------------------
State  Energy     Wavelength     R         MX        MY        MZ   
       (cm-1)       (nm)     (1e40*cgs)   (au)      (au)      (au)  
-------------------------------------------------------------------
   1   39322.7    254.3      0.02260  -0.00015  -0.00002   0.60976
   2   39938.5    250.4     -0.00084  -0.08543  -0.06317  -0.00003
   3   27898.5    358.4 spin forbidden
   4   34195.9    292.4 spin forbidden

Total run time:       38.687 sec

           *** ORCA-CIS/TD-DFT FINISHED WITHOUT ERROR ***

-----------------------
CIS/TD-DFT TOTAL ENERGY
-----------------------

    E(SCF)  =   -394.213370836 Eh
    DE(CIS) =      0.179167520 Eh (Root  1)
    ----------------------------- ---------
    E(tot)  =   -394.034203316 Eh


-------------------------   --------------------
FINAL SINGLE POINT ENERGY      -394.034203316037
-------------------------   --------------------



           ************************************************************
           *        Program running with 4 parallel MPI-processes     *
           *              working on a common directory               *
           ************************************************************
------------------------------------------------------------------------------
                         ORCA SCF GRADIENT CALCULATION
------------------------------------------------------------------------------


------------------------
TD-DFT GRADIENT XC SETUP
------------------------

Building densities                     ... done
Calculating rho(r) on the grid         ... done
Electron density on the final grid     ... found on disk
Building xc-kernel on the grid         ... done
Building xc 3rd derivative on the grid      ... done
Building xc 3rd derivative on the final grid ... done
                *** TD-DFT GRADIENT CALCULATION INITIALIZED ***

-------------------
TD-DFT GRADIENT
-------------------

Reference wavefunction             ... RHF
State of interest                  ... 1
Basis dimension                    ... 137
DFT-XC contribution needed         ... YES
RI-approximation                   ... OFF
CIS-vectors being read from        ... orca.cis

 => Number of Vectors found: 8
 => Orbital Window: 8...28 -> 29...136

Reading the RPA file                     ... done
Norm of the RPA vector                   ... 1.000000000
Making the RPA (pseudo)densities         ... done
Making operators G(D) and Q(T)           ... done
Transforming the Fock operators          ... done
Making the frozen-core relaxed density   ... done
Constructing the G(H) operator           ... done
Transforming the G(H) operator           ... done
Calculating the RPA Lagrangian           ... done
Solving the Z-vector equations           ... done
Finalizing the relaxed density           ... done
Storing the relaxed density              ... done
Constructing the G(Z) operator           ... done
Transforming the G(Z) operator           ... done
Making the W-matrix                      ... done
Finalizing the W-matrix                  ... done
Transforming the W-matrix                ... done
Nuclear repulsion gradient               ... done
One-Electron gradient                    ... done
Prescreening matrices                    ... done
Two-Electron gradient (4-center)         ... done
Exchange-Correlation gradient            ... done
                 ---------------------------
                 EXCITED STATE GRADIENT DONE
                 ---------------------------


------------------
CARTESIAN GRADIENT
------------------

   1   N   :    0.086479624    0.039401945    0.000003496
   2   C   :   -0.096480933   -0.048115408   -0.000003519
   3   C   :   -0.096642178    0.004686749   -0.000006046
   4   C   :    0.035667970   -0.064100177    0.000004517
   5   C   :   -0.037460360    0.050289968   -0.000007551
   6   N   :    0.060778741    0.008609824    0.000001350
   7   N   :    0.005280465   -0.017537540    0.000003386
   8   H   :    0.002894342   -0.003733334   -0.000000169
   9   H   :   -0.002280797   -0.002396374   -0.000001135
  10   O   :    0.053736848    0.028067668    0.000003283
  11   H   :   -0.009853673   -0.002931420    0.000000228
  12   H   :   -0.002443620    0.004736411   -0.000000497
  13   H   :    0.000626487    0.002778313    0.000002812

Difference to translation invariance:
           :    0.0003029179   -0.0002433754    0.0000001527

Norm of the cartesian gradient     ...    0.2174500266
RMS gradient                       ...    0.0348198713
MAX gradient                       ...    0.0966421779

-------
TIMINGS
-------

Total TD-DFT gradient time         ...       22.843 sec

Fock matrix formation       ....       2.034 sec  (  8.9%)
  Coulomb formation         ....       1.871 sec  ( 92.0% of F)
  XC integration            ....       0.163 sec  (  8.0% of F)
Z-vector equation           ....      15.117 sec  ( 66.2%)
One electron gradient       ....       0.066 sec  (  0.3%)
Prescreening matrices       ....       0.091 sec  (  0.4%)
Two electron gradient       ....       2.344 sec  ( 10.3%)
XC gradient                 ....       2.897 sec  ( 12.7%)

                            ***************************************
                            *     ORCA property calculations      *
                            ***************************************

                                    ---------------------
                                    Active property flags
                                    ---------------------
   (+) Dipole Moment


------------------------------------------------------------------------------
                       ORCA ELECTRIC PROPERTIES CALCULATION
------------------------------------------------------------------------------

Dipole Moment Calculation                       ... on
Quadrupole Moment Calculation                   ... off
Polarizability Calculation                      ... off
GBWName                                         ... orca.gbw
Electron density file                           ... orca.scfp
The origin for moment calculation is the CENTER OF MASS  = (-7.173628,  3.727201 -0.000082)

-------------
DIPOLE MOMENT
-------------
                                X             Y             Z
Electronic contribution:     -3.08934      -1.61881      -0.00017
Nuclear contribution   :      5.56025       2.05530       0.00052
                        -----------------------------------------
Total Dipole Moment    :      2.47091       0.43650       0.00035
                        -----------------------------------------
Magnitude (a.u.)       :      2.50917
Magnitude (Debye)      :      6.37780



--------------------
Rotational spectrum 
--------------------
 
Rotational constants in cm-1:     0.129734     0.068476     0.044820 
Rotational constants in MHz :  3889.338697  2052.873210  1343.661139 

 Dipole components along the rotational axes: 
x,y,z [a.u.] :     1.778750    -1.769739     0.000224 
x,y,z [Debye]:     4.521223    -4.498319     0.000569 

 

                        *** CIS RELAXED DENSITY ***

------------------------------------------------------------------------------
                       ORCA ELECTRIC PROPERTIES CALCULATION
------------------------------------------------------------------------------

Dipole Moment Calculation                       ... on
Quadrupole Moment Calculation                   ... off
Polarizability Calculation                      ... off
GBWName                                         ... orca.gbw
Electron density file                           ... orca.cisp
The origin for moment calculation is the CENTER OF MASS  = (-7.173628,  3.727201 -0.000082)

-------------
DIPOLE MOMENT
-------------
                                X             Y             Z
Electronic contribution:     -4.10932      -1.96180      -0.00025
Nuclear contribution   :      5.56025       2.05530       0.00052
                        -----------------------------------------
Total Dipole Moment    :      1.45093       0.09350       0.00027
                        -----------------------------------------
Magnitude (a.u.)       :      1.45394
Magnitude (Debye)      :      3.69563



--------------------
Rotational spectrum 
--------------------
 
Rotational constants in cm-1:     0.129734     0.068476     0.044820 
Rotational constants in MHz :  3889.338697  2052.873210  1343.661139 

 Dipole components along the rotational axes: 
x,y,z [a.u.] :     0.911334    -1.132883     0.000192 
x,y,z [Debye]:     2.316426    -2.879559     0.000489 

 

Timings for individual modules:

Sum of individual times         ...       69.024 sec (=   1.150 min)
GTO integral calculation        ...        0.323 sec (=   0.005 min)   0.5 %
SCF iterations                  ...        6.860 sec (=   0.114 min)   9.9 %
CIS module                      ...       38.826 sec (=   0.647 min)  56.2 %
SCF Gradient evaluation         ...       23.015 sec (=   0.384 min)  33.3 %
                             ****ORCA TERMINATED NORMALLY****
TOTAL RUN TIME: 0 days 0 hours 1 minutes 9 seconds 328 msec
