[Molden Format]
[Title]
                                                                                
[Atoms] AU
 h     1    1 0.00000000000000E+00 0.00000000000000E+00 0.42083286471750E-01
 f     2    9 0.00000000000000E+00 0.00000000000000E+00 0.18476428381540E+01
[GTO]
    1 0
 s    3 1.00
 0.34252510000000E+01 0.15432897017315E+00
 0.62391374000000E+00 0.53532814060062E+00
 0.16885541000000E+00 0.44463454049886E+00
 
    2 0
 s    3 1.00
 0.16667913000000E+03 0.15432897010546E+00
 0.30360812000000E+02 0.53532814036580E+00
 0.82168207000000E+01 0.44463454030383E+00
 s    3 1.00
 0.64648032000000E+01 -.99967228213274E-01
 0.15022812000000E+01 0.39951282685590E+00
 0.48858849000000E+00 0.70011546449021E+00
 p    3 1.00
 0.64648032000000E+01 0.15591627926554E+00
 0.15022812000000E+01 0.60768371713744E+00
 0.48858849000000E+00 0.39195738815364E+00
 
[MO]
 Sym=     1a   
 Ene= -.25903505999819E+02
 Spin= Alpha
 Occup= 2.000000
     1 -.53404898930208E-02
     2 0.99474577074812E+00
     3 0.22259944730760E-01
     4 0.17161213036836E-15
     5 0.47221151100747E-16
     6 -.26727520610293E-02
 Sym=     2a   
 Ene= -.14598569523678E+01
 Spin= Alpha
 Occup= 2.000000
     1 0.15042814693771E+00
     2 -.25067862919759E+00
     3 0.94670577538945E+00
     4 0.23859577017323E-15
     5 0.45598618360672E-17
     6 -.78252678439770E-01
 Sym=     3a   
 Ene= -.57365271521815E+00
 Spin= Alpha
 Occup= 2.000000
     1 -.53370706697797E+00
     2 -.78267272868234E-01
     3 0.41089882883806E+00
     4 0.30404115719340E-15
     5 0.15454491492569E-14
     6 0.69805941811358E+00
 Sym=     4a   
 Ene= -.46311950872221E+00
 Spin= Alpha
 Occup= 2.000000
     1 0.84592487182216E-15
     2 0.32553775947390E-15
     3 -.86162842425853E-15
     4 0.53282593963056E+00
     5 0.84622486258489E+00
     6 -.10451039120852E-14
 Sym=     5a   
 Ene= -.46311950872220E+00
 Spin= Alpha
 Occup= 2.000000
     1 -.40101378200495E-15
     2 -.57851527762921E-16
     3 0.56722587545336E-15
     4 0.84622486258489E+00
     5 -.53282593963056E+00
     6 0.56444849693387E-15
 Sym=     6a   
 Ene= 0.58982200057184E+00
 Spin= Alpha
 Occup= 0.000000
     1 0.10543409991255E+01
     2 0.80569651497663E-01
     3 -.51584978899673E+00
     4 -.25680675683924E-16
     5 -.10106374907034E-16
     6 0.81643423477733E+00
