[Molden Format]
[Title]
                                                                                
[Atoms] AU
 h     1    1 0.00000000000000E+00 0.00000000000000E+00 0.42083293910820E-01
 f     2    9 0.00000000000000E+00 0.00000000000000E+00 0.18476428389748E+01
[GTO]
    1 0
 s    3 1.00
 0.34252510000000E+01 0.15432897017315E+00
 0.62391374000000E+00 0.53532814060062E+00
 0.16885541000000E+00 0.44463454049886E+00
 
    2 0
 s    3 1.00
 0.16667913000000E+03 0.15432897010546E+00
 0.30360812000000E+02 0.53532814036580E+00
 0.82168207000000E+01 0.44463454030383E+00
 s    3 1.00
 0.64648032000000E+01 -.99967228213274E-01
 0.15022812000000E+01 0.39951282685590E+00
 0.48858849000000E+00 0.70011546449021E+00
 p    3 1.00
 0.64648032000000E+01 0.15591627926554E+00
 0.15022812000000E+01 0.60768371713744E+00
 0.48858849000000E+00 0.39195738815364E+00
 
[MO]
 Sym=     1a   
 Ene= -.25903505999031E+02
 Spin= Alpha
 Occup= 2.000000
     1 -.53404901763983E-02
     2 0.99474577074309E+00
     3 0.22259944812417E-01
     4 -.48277712443314E-16
     5 -.17584064296162E-15
     6 -.26727526314076E-02
 Sym=     2a   
 Ene= -.14598569498938E+01
 Spin= Alpha
 Occup= 2.000000
     1 0.15042817872808E+00
     2 -.25067862648185E+00
     3 0.94670575852477E+00
     4 -.12311535505803E-14
     5 -.36825071739556E-15
     6 -.78252661024203E-01
 Sym=     3a   
 Ene= -.57365272102407E+00
 Spin= Alpha
 Occup= 2.000000
     1 -.53370704668736E+00
     2 -.78267272788124E-01
     3 0.41089882676250E+00
     4 0.68594525562872E-14
     5 0.40661273024086E-15
     6 0.69805943235025E+00
 Sym=     5a   
 Ene= -.46311950660696E+00
 Spin= Alpha
 Occup= 2.000000
     1 0.32905728483232E-14
     2 0.90449064143794E-16
     3 -.12830663885074E-14
     4 0.87871660137908E+00
     5 -.47734383253667E+00
     6 -.43407613607526E-14
 Sym=     4a   
 Ene= -.46311950660695E+00
 Spin= Alpha
 Occup= 2.000000
     1 0.13115604386859E-14
     2 -.92464186244494E-16
     3 -.27605158141041E-15
     4 0.47734383253667E+00
     5 0.87871660137908E+00
     6 -.31839909821055E-14
 Sym=     6a   
 Ene= 0.58982200103953E+00
 Spin= Alpha
 Occup= 0.000000
     1 0.10543410075184E+01
     2 0.80569660388128E-01
     3 -.51584982542445E+00
     4 0.40734498641099E-15
     5 0.61017584146216E-15
     6 0.81643422538794E+00
[GEOCONV]
energy
-.98084860942800E+02
-.98108240366100E+02
max-force
0.93888600000000E+00
0.71328900000000E+00
[GEOMETRIES] XYZ
     2

 h  0.00000000000000E+00 0.00000000000000E+00 0.22269520087534E-01
 f  0.00000000000000E+00 0.00000000000000E+00 0.97773048384310E+00
     2

 h  0.00000000000000E+00 0.00000000000000E+00 0.22269520087534E-01
 f  0.00000000000000E+00 0.00000000000000E+00 0.97773048384310E+00
