methane                                                                 
Freq      RB3LYP                                                      6-31G(d,p)          
Number of atoms                            I                5
Info1-9                                    I   N=           9
          13          10           0           0           0         100
           6          18        -502
Full Title                                 C   N=           1
methane     
Route                                      C   N=           4
#P b3lyp 6-31G(d,p) freq nosymm geom=check      
Charge                                     I                0
Multiplicity                               I                1
Number of electrons                        I               10
Number of alpha electrons                  I                5
Number of beta electrons                   I                5
Number of basis functions                  I               35
Number of independent functions            I               35
Number of point charges in /Mol/           I                0
Number of translation vectors              I                0
Atomic numbers                             I   N=           5
           6           1           1           1           1
Nuclear charges                            R   N=           5
  6.00000000E+00  1.00000000E+00  1.00000000E+00  1.00000000E+00  1.00000000E+00
Current cartesian coordinates              R   N=          15
 -2.59837361E+00  7.76137840E-01  3.85003942E-09 -1.91055425E+00 -1.16938398E+00
 -8.52380529E-09 -1.91051816E+00  1.74888521E+00  1.68486437E+00 -1.91051816E+00
  1.74888520E+00 -1.68486436E+00 -4.66190186E+00  7.76162427E-01  1.78623506E-09
Number of symbols in /Mol/                 I                0
Force Field                                I                0
Atom Types                                 C   N=           5
                                                            
Int Atom Types                             I   N=           5
           0           0           0           0           0
MM charges                                 R   N=           5
  0.00000000E+00  0.00000000E+00  0.00000000E+00  0.00000000E+00  0.00000000E+00
Integer atomic weights                     I   N=           5
          12           1           1           1           1
Real atomic weights                        R   N=           5
  1.20000000E+01  1.00782504E+00  1.00782504E+00  1.00782504E+00  1.00782504E+00
Atom fragment info                         I   N=           5
           0           0           0           0           0
Atom residue num                           I   N=           5
           0           0           0           0           0
Nuclear spins                              I   N=           5
           0           1           1           1           1
Nuclear ZEff                               R   N=           5
 -3.60000000E+00 -1.00000000E+00 -1.00000000E+00 -1.00000000E+00 -1.00000000E+00
Nuclear ZNuc                               R   N=           5
  6.00000000E+00  1.00000000E+00  1.00000000E+00  1.00000000E+00  1.00000000E+00
Nuclear QMom                               R   N=           5
  0.00000000E+00  0.00000000E+00  0.00000000E+00  0.00000000E+00  0.00000000E+00
Nuclear GFac                               R   N=           5
  0.00000000E+00  2.79284600E+00  2.79284600E+00  2.79284600E+00  2.79284600E+00
MicOpt                                     I   N=           5
          -1          -1          -1          -1          -1
Number of residues                         I                0
Number of secondary structures             I                0
Redundant internal dimensions              I   N=           4
          14           4           6           4
Redundant internal coordinate indices      I   N=          56
           1           2           0           0           1           3
           0           0           1           4           0           0
           1           5           0           0           2           1
           3           0           2           1           4           0
           2           1           5           0           3           1
           4           0           3           1           5           0
           4           1           5           0           2           1
           4           3           2           1           5           3
           2           1           5           4           3           1
           5           4
Redundant internal coordinates             R   N=          14
  2.06352868E+00  2.06352865E+00  2.06352865E+00  2.06352825E+00  1.91063260E+00
  1.91063258E+00  1.91063305E+00  1.91063371E+00  1.91063374E+00  1.91063374E+00
 -2.09439421E+00  2.09439452E+00 -2.09439450E+00  2.09439629E+00
ZRed-IntVec                                I   N=          14
           0           0           0           0           0           0
           0           0           0           0           0           0
           0           0
ZRed-FPVec                                 R   N=          14
  0.00000000E+00  0.00000000E+00  0.00000000E+00  0.00000000E+00  0.00000000E+00
  0.00000000E+00  0.00000000E+00  0.00000000E+00  0.00000000E+00  0.00000000E+00
  0.00000000E+00  0.00000000E+00  0.00000000E+00  0.00000000E+00
ZRed-Constraint1                           R   N=          14
  2.06352868E+00  2.06352865E+00  2.06352865E+00  2.06352825E+00  1.91063260E+00
  1.91063258E+00  1.91063305E+00  1.91063371E+00  1.91063374E+00  1.91063374E+00
 -2.09439421E+00  2.09439452E+00 -2.09439450E+00  2.09439629E+00
ZRed-Constraint2                           R   N=          14
  2.02200695E+00  2.02200695E+00  2.02200695E+00  2.02200695E+00  1.91063292E+00
  1.91063292E+00  1.91063342E+00  1.91063376E+00  1.91063320E+00  1.91063320E+00
 -2.09439484E+00  2.09439481E+00 -2.09439481E+00  2.09439570E+00
Number of contracted shells                I               16
Number of primitive shells                 I               31
Pure/Cartesian d shells                    I                1
Pure/Cartesian f shells                    I                0
Highest angular momentum                   I                2
Largest degree of contraction              I                6
Shell types                                I   N=          16
           0          -1          -1           2           0           0
           1           0           0           1           0           0
           1           0           0           1
Number of primitives per shell             I   N=          16
           6           3           1           1           3           1
           1           3           1           1           3           1
           1           3           1           1
Shell to atom map                          I   N=          16
           1           1           1           1           2           2
           2           3           3           3           4           4
           4           5           5           5
Primitive exponents                        R   N=          31
  3.04752488E+03  4.57369518E+02  1.03948685E+02  2.92101553E+01  9.28666296E+00
  3.16392696E+00  7.86827235E+00  1.88128854E+00  5.44249258E-01  1.68714478E-01
  8.00000000E-01  1.87311370E+01  2.82539436E+00  6.40121692E-01  1.61277759E-01
  1.10000000E+00  1.87311370E+01  2.82539436E+00  6.40121692E-01  1.61277759E-01
  1.10000000E+00  1.87311370E+01  2.82539436E+00  6.40121692E-01  1.61277759E-01
  1.10000000E+00  1.87311370E+01  2.82539436E+00  6.40121692E-01  1.61277759E-01
  1.10000000E+00
Contraction coefficients                   R   N=          31
  1.83473713E-03  1.40373228E-02  6.88426223E-02  2.32184443E-01  4.67941348E-01
  3.62311985E-01 -1.19332420E-01 -1.60854152E-01  1.14345644E+00  1.00000000E+00
  1.00000000E+00  3.34946043E-02  2.34726953E-01  8.13757326E-01  1.00000000E+00
  1.00000000E+00  3.34946043E-02  2.34726953E-01  8.13757326E-01  1.00000000E+00
  1.00000000E+00  3.34946043E-02  2.34726953E-01  8.13757326E-01  1.00000000E+00
  1.00000000E+00  3.34946043E-02  2.34726953E-01  8.13757326E-01  1.00000000E+00
  1.00000000E+00
P(S=P) Contraction coefficients            R   N=          31
  0.00000000E+00  0.00000000E+00  0.00000000E+00  0.00000000E+00  0.00000000E+00
  0.00000000E+00  6.89990666E-02  3.16423961E-01  7.44308291E-01  1.00000000E+00
  0.00000000E+00  0.00000000E+00  0.00000000E+00  0.00000000E+00  0.00000000E+00
  0.00000000E+00  0.00000000E+00  0.00000000E+00  0.00000000E+00  0.00000000E+00
  0.00000000E+00  0.00000000E+00  0.00000000E+00  0.00000000E+00  0.00000000E+00
  0.00000000E+00  0.00000000E+00  0.00000000E+00  0.00000000E+00  0.00000000E+00
  0.00000000E+00
Coordinates of each shell                  R   N=          48
 -2.59837361E+00  7.76137840E-01  3.85003942E-09 -2.59837361E+00  7.76137840E-01
  3.85003942E-09 -2.59837361E+00  7.76137840E-01  3.85003942E-09 -2.59837361E+00
  7.76137840E-01  3.85003942E-09 -1.91055425E+00 -1.16938398E+00 -8.52380529E-09
 -1.91055425E+00 -1.16938398E+00 -8.52380529E-09 -1.91055425E+00 -1.16938398E+00
 -8.52380529E-09 -1.91051816E+00  1.74888521E+00  1.68486437E+00 -1.91051816E+00
  1.74888521E+00  1.68486437E+00 -1.91051816E+00  1.74888521E+00  1.68486437E+00
 -1.91051816E+00  1.74888520E+00 -1.68486436E+00 -1.91051816E+00  1.74888520E+00
 -1.68486436E+00 -1.91051816E+00  1.74888520E+00 -1.68486436E+00 -4.66190186E+00
  7.76162427E-01  1.78623506E-09 -4.66190186E+00  7.76162427E-01  1.78623506E-09
 -4.66190186E+00  7.76162427E-01  1.78623506E-09
Num ILSW                                   I              100
ILSW                                       I   N=         100
           0           1           0           0           2           0
           0           0           0           0         402          -1
           5           0           0           0           2           0
           0           0           0           0           1           0
           1           1           0           0           0           0
           0           0      100000           0          -1           0
           0           0           0           0           0           0
           0           0           0           1           0           0
           0 -2000000000           1           0           0           0
           0           0           4          52           0           0
           0           0           5           0           0           0
           0           0           0           5           0           1
           0           0           0           0           0           0
           0           0           0           0           0           0
           0           0           0           0           0           0
           0           0           0           0           0           0
           0           0           0           0
Num RLSW                                   I               52
RLSW                                       R   N=          52
  8.00000000E-01  7.20000000E-01  1.00000000E+00  8.10000000E-01  2.00000000E-01
  0.00000000E+00  0.00000000E+00  1.00000000E+00  0.00000000E+00  0.00000000E+00
  0.00000000E+00  0.00000000E+00  1.00000000E+00  0.00000000E+00  0.00000000E+00
  0.00000000E+00  0.00000000E+00  1.00000000E+00  0.00000000E+00  0.00000000E+00
  0.00000000E+00  0.00000000E+00  1.00000000E+00  0.00000000E+00  0.00000000E+00
  0.00000000E+00  0.00000000E+00  1.00000000E+00  0.00000000E+00  0.00000000E+00
  0.00000000E+00  0.00000000E+00  1.00000000E+00  0.00000000E+00  0.00000000E+00
  0.00000000E+00  0.00000000E+00  0.00000000E+00  1.00000000E+00  1.00000000E+00
  0.00000000E+00  1.00000000E+00  0.00000000E+00  0.00000000E+00  0.00000000E+00
  0.00000000E+00  0.00000000E+00  0.00000000E+00  0.00000000E+00  0.00000000E+00
  0.00000000E+00  0.00000000E+00
MxBond                                     I                4
NBond                                      I   N=           5
           4           1           1           1           1
IBond                                      I   N=          20
           2           3           4           5           1           0
           0           0           1           0           0           0
           1           0           0           0           1           0
           0           0
RBond                                      R   N=          20
  1.00000000E+00  1.00000000E+00  1.00000000E+00  1.00000000E+00  1.00000000E+00
  0.00000000E+00  0.00000000E+00  0.00000000E+00  1.00000000E+00  0.00000000E+00
  0.00000000E+00  0.00000000E+00  1.00000000E+00  0.00000000E+00  0.00000000E+00
  0.00000000E+00  1.00000000E+00  0.00000000E+00  0.00000000E+00  0.00000000E+00
Virial Ratio                               R      2.011117061867257E+00
SCF Energy                                 R     -4.052401402382498E+01
Total Energy                               R     -4.052401402382498E+01
RMS Force                                  R      3.284111058152945E-05
RMS Density                                R      2.444278052003624E-09
NImag                                      I                0
Job Status                                 I                1
Nuclear derivative order                   I                2
External E-field                           R   N=          35
  0.00000000E+00  0.00000000E+00  0.00000000E+00  0.00000000E+00  0.00000000E+00
  0.00000000E+00  0.00000000E+00  0.00000000E+00  0.00000000E+00  0.00000000E+00
  0.00000000E+00  0.00000000E+00  0.00000000E+00  0.00000000E+00  0.00000000E+00
  0.00000000E+00  0.00000000E+00  0.00000000E+00  0.00000000E+00  0.00000000E+00
  0.00000000E+00  0.00000000E+00  0.00000000E+00  0.00000000E+00  0.00000000E+00
  0.00000000E+00  0.00000000E+00  0.00000000E+00  0.00000000E+00  0.00000000E+00
  0.00000000E+00  0.00000000E+00  0.00000000E+00  0.00000000E+00  0.00000000E+00
IOpCl                                      I                0
IROHF                                      I                0
Alpha Orbital Energies                     R   N=          35
 -1.01670728E+01 -6.90406482E-01 -3.88309029E-01 -3.88308978E-01 -3.88308842E-01
  1.18237476E-01  1.76769733E-01  1.76769789E-01  1.76769827E-01  5.29149119E-01
  5.29149156E-01  5.29149190E-01  8.74373238E-01  8.74373361E-01  8.74373427E-01
  9.22378536E-01  1.10030549E+00  1.36342092E+00  1.36342098E+00  2.04814653E+00
  2.04814669E+00  2.04814673E+00  2.05173768E+00  2.05173781E+00  2.05173806E+00
  2.62985714E+00  2.62985799E+00  2.62985817E+00  2.91126847E+00  2.91126859E+00
  3.11530067E+00  3.42038895E+00  3.42038913E+00  3.42038924E+00  4.42253827E+00
Alpha MO coefficients                      R   N=        1225
  9.92842558E-01  4.95524197E-02 -2.41694475E-09  1.10293801E-09 -5.73265054E-12
 -1.45433684E-02 -4.85155496E-10  2.46050065E-09  2.54813164E-11 -9.12348644E-03
 -9.12348877E-03 -9.12348768E-03  1.17557368E-09 -4.53835102E-13  4.92367529E-12
 -2.23870589E-04  2.54872011E-03  5.85891656E-05 -1.65721214E-04  2.82037655E-13
 -2.23872212E-04  2.54871879E-03  5.85925611E-05  8.28599778E-05  1.43519272E-04
 -2.23872206E-04  2.54871881E-03  5.85925582E-05  8.28599779E-05 -1.43519272E-04
 -2.23873385E-04  2.54871996E-03 -1.75775045E-04  2.13574899E-09 -2.11141992E-12
 -1.99444950E-01  3.86724708E-01  2.82426816E-08 -1.22847425E-07 -7.44908302E-10
  3.44272771E-01  8.81286278E-09 -4.53923896E-08 -2.97555482E-10 -9.52760328E-03
 -9.52762682E-03 -9.52761836E-03 -1.87194775E-09 -5.78535559E-11  9.83806968E-11
  1.37849355E-01  4.54475696E-02 -4.37740644E-03  1.23816528E-02  3.48836783E-11
  1.37849316E-01  4.54475623E-02 -4.37763575E-03 -6.19074354E-03 -1.07227814E-02
  1.37849316E-01  4.54475623E-02 -4.37763576E-03 -6.19074352E-03  1.07227814E-02
  1.37849364E-01  4.54475552E-02  1.31326681E-02 -1.58339032E-07  1.13333550E-11
  2.22218456E-08 -4.62276227E-08  4.39259810E-01  5.55402750E-02 -2.01582155E-03
 -3.27988665E-08  1.98638820E-01  2.51160277E-02 -9.11580184E-04 -2.26721723E-02
  9.30881302E-03  1.33633820E-02  1.65568547E-03 -6.00722547E-05 -8.49523045E-05
  6.26058812E-02  5.55723495E-02  7.30278633E-03  4.20695571E-03 -3.86129478E-05
  1.13800191E-01  1.01015151E-01  6.39401986E-03 -1.79272166E-03 -4.98641831E-03
  1.15991428E-01  1.02960210E-01  6.35512508E-03 -1.84772568E-03  5.00446313E-03
 -2.92397448E-01 -2.59547620E-01 -7.15601972E-03  1.06405627E-03 -3.86129443E-05
 -7.26230201E-10  1.38689830E-09  1.61695057E-03  3.28116748E-03  4.42746569E-01
  1.91907865E-09  7.31205662E-04  1.48378591E-03  2.00215676E-01 -8.34541189E-05
 -7.80277964E-05  1.61481966E-04  9.77786724E-05  1.31939905E-02  1.86585822E-02
 -1.70047191E-03 -1.50943035E-03  6.11545980E-05 -2.25204845E-05  8.48078316E-03
  2.42025406E-01  2.14834744E-01 -4.26501357E-03 -6.01242565E-03 -2.04200688E-03
 -2.39248621E-01 -2.12369920E-01  4.27767035E-03  6.06842438E-03 -1.92127780E-03
 -1.07631328E-03 -9.55393099E-04 -2.63405512E-05  6.28512449E-05  8.48078048E-03
 -6.01896906E-08  1.06387743E-07 -5.55533184E-02  4.39252129E-01 -3.05238464E-03
  1.43645468E-07 -2.51219085E-02  1.98635495E-01 -1.38032795E-03  2.86793716E-03
 -1.74655232E-02  1.45975947E-02  1.30893069E-02 -9.09620116E-05 -1.28636223E-04
 -2.87997893E-01 -2.55642554E-01  4.04761391E-03 -6.04488106E-03 -5.84683217E-05
  1.23848323E-01  1.09934488E-01 -3.26244685E-03  5.30503322E-03 -5.44314542E-03
  1.27166323E-01  1.12879725E-01 -3.32134184E-03  5.22174549E-03  5.47046903E-03
  3.69832462E-02  3.28283520E-02  9.05215626E-04  8.41382610E-03 -5.84682327E-05
 -1.63215647E-01  1.97647471E-01  2.34783282E-07 -9.22234324E-08  1.51447711E-10
  2.60833818E+00  8.18734352E-07 -5.72539251E-07 -2.34808114E-09 -1.69679303E-02
 -1.69679381E-02 -1.69679519E-02 -8.72800039E-09 -8.40306618E-11 -6.50913825E-11
 -1.77994268E-02 -9.90718091E-01 -1.73171642E-03  4.89822364E-03  1.84678832E-10
 -1.77995268E-02 -9.90717842E-01 -1.73181144E-03 -2.44907112E-03 -4.24197812E-03
 -1.77995256E-02 -9.90717839E-01 -1.73181147E-03 -2.44907093E-03  4.24197817E-03
 -1.77994534E-02 -9.90717126E-01  5.19533222E-03 -5.25324394E-08  4.89441607E-11
 -2.80673931E-08  9.20673475E-08 -4.63223159E-02  3.78386298E-01 -2.78045556E-03
 -9.14694440E-08 -1.63401318E-01  1.33475190E+00 -9.80801788E-03 -2.44793620E-03
  1.53606866E-02 -1.29127420E-02 -1.15422337E-02  8.48180647E-05  1.19947705E-04
  1.23097076E-01  1.81706858E+00  3.53280107E-03 -2.50641374E-03 -8.41485715E-05
 -5.31367159E-02 -7.84363421E-01 -3.53216527E-03  8.43906265E-03 -5.30209341E-03
 -5.46384267E-02 -8.06530557E-01 -3.59236895E-03  8.35392376E-03  5.28126165E-03
 -1.53222046E-02 -2.26174178E-01  4.40851171E-04  1.14516024E-02 -8.41488313E-05
 -3.47647377E-10 -6.62414221E-10 -1.69482625E-03 -3.00865561E-03 -3.81205653E-01
  1.62535373E-08 -5.97847950E-03 -1.06129911E-02 -1.34469810E+00 -8.95431926E-05
 -6.76343454E-05  1.57177251E-04  9.17785257E-05  1.16287042E-02  1.64450266E-02
 -7.51330958E-04 -1.10906277E-02 -8.14123010E-05 -5.86106258E-06 -1.15369225E-02
  1.03599439E-01  1.52926056E+00  4.10203042E-03  5.78246614E-03 -1.36361510E-03
 -1.02287573E-01 -1.50989577E+00 -4.15202334E-03 -5.89020049E-03 -1.49243854E-03
 -5.60532157E-04 -8.27419108E-03  1.61215168E-05 -9.10558421E-05 -1.15369551E-02
  7.59938403E-08 -7.21868206E-08  3.78392709E-01  4.63080671E-02 -2.04780576E-03
 -1.55162577E-06  1.33477575E+00  1.63351101E-01 -7.22360881E-03  1.99924714E-02
 -8.26593820E-03 -1.17264894E-02 -1.41314371E-03  6.24684128E-05  8.83411885E-05
 -2.72748779E-02 -4.02612713E-01  1.03583991E-02  4.49419483E-03 -6.19752756E-05
 -4.83839883E-02 -7.14209979E-01  9.51209212E-03 -1.34161933E-03 -4.81322633E-03
 -4.94899957E-02 -7.30536079E-01  9.46775197E-03 -1.40432384E-03  4.79788388E-03
  1.25148954E-01  1.84736069E+00 -3.59965105E-03  1.40166641E-03 -6.19755980E-05
  4.16282408E-09 -1.35481504E-07 -1.07547167E-01 -7.38050168E-01  4.64435720E-03
 -3.24488261E-07  2.09185105E-01  1.43554466E+00 -9.03350728E-03  1.09311441E-02
  4.75883331E-02 -5.85196294E-02 -4.33174826E-02  2.72593285E-04  3.85494724E-04
  4.37577915E-01  2.19434784E-01 -3.87189884E-03  3.90476060E-02 -1.25196616E-04
 -2.51923922E-01 -1.26333491E-01  6.79759348E-03  2.54085670E-02  9.42380013E-03
 -2.56952259E-01 -1.28855079E-01  6.87540563E-03  2.55186059E-02 -9.86479103E-03
  7.12977552E-02  3.57549887E-02  6.20903376E-03  1.98954643E-02 -1.25197336E-04
  9.79749661E-09  2.56602590E-07 -7.38038151E-01  1.07501392E-01 -6.99821187E-03
 -3.99386054E-07  1.43552304E+00 -2.09095414E-01  1.36118805E-02  7.50279263E-02
 -4.52408670E-02 -2.97869893E-02  6.30730867E-03 -4.10749092E-04 -5.80871433E-04
 -2.30298659E-01 -1.15489684E-01  2.34588411E-02 -1.29777153E-02  1.88649754E-04
 -1.33299482E-01 -6.68473212E-02  2.19580253E-02  1.92315517E-05  5.24128708E-03
 -1.25722681E-01 -6.30477274E-02  2.18407767E-02 -1.46577942E-04 -4.57679281E-03
  4.89321425E-01  2.45384312E-01  4.26110251E-02 -2.89815549E-03  1.88650121E-04
 -8.93079852E-11 -5.26242037E-09  6.25554414E-03 -5.60474481E-03 -7.45811955E-01
  1.48800456E-09 -1.21673659E-02  1.09015185E-02  1.45064309E+00 -6.35942417E-04
  7.20854661E-04 -8.49149903E-05 -3.28932672E-04 -4.37743023E-02 -6.19044859E-02
  4.88587756E-03  2.45016857E-03 -2.44233603E-04  3.64934011E-04  2.01047514E-02
 -4.04105836E-01 -2.02650452E-01  6.08477014E-03  8.99448264E-03  3.54221760E-02
  4.03367429E-01  2.02280177E-01 -6.41060469E-03 -8.67615099E-03  3.53941879E-02
 -4.14748465E-03 -2.07987353E-03 -3.61168723E-04  1.51088677E-04  2.01047973E-02
  1.53454187E-07 -6.69761745E-08  7.91691356E-02 -7.63066974E-01  4.75330397E-03
 -8.77306644E-07 -1.35448473E-01  1.30551232E+00 -8.13230972E-03  2.54875152E-02
 -1.86411216E-01  1.60923874E-01  1.41794736E-01 -8.83304626E-04 -1.24914832E-03
 -8.25284408E-01  1.75606956E+00 -4.60458247E-02  9.44527943E-02  3.15540652E-04
  3.64541299E-01 -7.75681867E-01  2.79172595E-02 -1.86071885E-02  5.58242716E-02
  3.73130464E-01 -7.93958183E-01  2.84512070E-02 -1.78520944E-02 -5.65010671E-02
  8.76157367E-02 -1.86430267E-01 -1.10840613E-02 -5.06546862E-02  3.15539831E-04
 -2.67908903E-09  1.13783639E-08  2.79163188E-03  5.06840987E-03  7.67155847E-01
 -7.27714608E-09 -4.77613476E-03 -8.67141770E-03 -1.31250804E+00  8.98475926E-04
  7.04296863E-04 -1.60277547E-03 -9.41853236E-04 -1.42560391E-01 -2.01605248E-01
  4.25804637E-03 -9.06043605E-03  4.50006897E-04 -4.12225157E-04  5.09263516E-02
 -6.96794410E-01  1.48266251E+00 -4.31310900E-02 -6.09204948E-02 -5.51748399E-02
  6.89447308E-01 -1.46702915E+00  4.30449921E-02  6.09475090E-02 -5.40560963E-02
  3.08899519E-03 -6.57289327E-03 -3.90758271E-04  3.36464844E-04  5.09263618E-02
  4.08091634E-08 -1.17253634E-06 -7.63076740E-01 -7.91495614E-02  3.29970979E-03
  2.31399612E-06  1.30552931E+00  1.35415075E-01 -5.64539235E-03 -2.45603841E-01
  1.04785893E-01  1.40817907E-01  1.47146753E-02 -6.13185103E-04 -8.67148844E-04
  1.98877052E-01 -4.23177204E-01 -3.82929686E-02 -4.02222788E-02  2.19045612E-04
  3.19771488E-01 -6.80420448E-01 -3.07768812E-02  2.28577120E-02  4.89107966E-02
  3.25734025E-01 -6.93107734E-01 -3.04062183E-02  2.33818936E-02 -4.93806237E-02
 -8.44380854E-01  1.79670246E+00  1.06815179E-01 -5.25609619E-03  2.19045961E-04
  9.70265978E-02 -8.68068048E-01  6.28416603E-07  8.38898264E-07  9.57710619E-09
  1.36384143E+00 -1.31196459E-06 -9.01003670E-07 -1.21351164E-08  3.22226524E-02
  3.22223846E-02  3.22221475E-02 -1.94681541E-07 -4.00961090E-09 -6.04506147E-10
  6.09458489E-01 -6.02733067E-01  2.69472750E-02 -7.62211729E-02  2.79836566E-10
  6.09456865E-01 -6.02730879E-01  2.69485557E-02  3.81100734E-02  6.60090340E-02
  6.09456885E-01 -6.02730910E-01  2.69485580E-02  3.81100744E-02 -6.60090353E-02
  6.09458020E-01 -6.02733693E-01 -8.08444610E-02  1.09960731E-06  1.53416352E-09
 -1.03060133E-01 -2.03099477E+00 -3.22941678E-08 -2.40213669E-08  3.48142357E-10
  5.43576984E+00  7.15975107E-07 -1.37930272E-06 -1.19332691E-08 -1.04628649E-01
 -1.04628815E-01 -1.04628791E-01  2.49847853E-07  5.78251045E-09 -2.73722210E-09
 -3.17107887E-01 -1.02375838E+00  4.28056220E-03 -1.21078071E-02  1.22939825E-09
 -3.17107068E-01 -1.02375827E+00  4.28093667E-03  6.05378138E-03  1.04856297E-02
 -3.17107075E-01 -1.02375827E+00  4.28093274E-03  6.05378305E-03 -1.04856301E-02
 -3.17106690E-01 -1.02375882E+00 -1.28422279E-02 -1.41193545E-08 -2.94390858E-09
  2.28593337E-09  3.01962354E-08  1.17496195E-09  5.76503599E-10 -3.33158694E-08
 -8.70698246E-08 -8.71551440E-10 -4.45284710E-10  3.54443073E-08  1.77154753E-07
  5.26200995E-03 -5.26218216E-03  8.59318809E-03  5.45546091E-01 -3.85769929E-01
  9.95786851E-09  1.52411169E-08 -3.65059154E-03 -1.29063204E-03  2.45823040E-01
 -4.09367620E-08 -3.01567761E-08  2.02537004E-01 -1.39347237E-01 -2.23552402E-03
  5.94611520E-08  6.19420080E-08 -1.98886372E-01  1.44509889E-01  2.23549313E-03
  8.54965784E-09  1.37467664E-08 -4.63867634E-08 -3.87201910E-03 -2.45822656E-01
  4.47167235E-08  6.26952728E-07  4.72342157E-08  5.59547603E-08  2.19918364E-10
 -1.78085035E-06 -3.31005415E-08 -4.39931344E-08 -3.10641480E-10  1.13289730E-05
  3.34069026E-01 -3.34080264E-01  5.45555846E-01 -8.59303724E-03  6.07635956E-03
  2.14986717E-07  2.82284489E-07 -2.31765083E-01 -8.19382066E-02 -3.87202021E-03
  1.86072076E-07  3.57217739E-07  1.12722412E-01  1.66116120E-01 -1.41925797E-01
  1.84756106E-07  3.56369961E-07  1.19045334E-01  1.61645015E-01  1.41925797E-01
  1.54775541E-07  2.53707714E-07 -2.93062754E-06 -2.45822959E-01  3.87201657E-03
  1.70091875E-13 -1.94320389E-13 -5.25002748E-09  1.88623486E-09  3.99118321E-08
 -2.79076077E-12  2.77175842E-08 -9.95094876E-09 -4.70312629E-07 -3.28210766E-08
  2.46385456E-08  8.18431140E-09 -6.77981689E-09 -3.66316580E-07 -5.36566418E-07
 -1.97287374E-08  2.09772893E-09  1.24897782E-04  4.41683481E-05  2.02142538E-02
  4.89793180E-07 -1.14942187E-07  4.68935334E-01  1.83359188E-01 -2.97306592E-01
 -4.99532197E-07  1.16032557E-07 -4.69060266E-01 -1.83270856E-01 -2.97306591E-01
  2.94683123E-08 -3.18601489E-09 -1.92483487E-08 -1.32480941E-04  5.74399942E-01
 -7.94529321E-10  8.11583552E-10  6.47072094E-06  7.04503257E-06  2.22597543E-07
  1.32925828E-08 -3.42839073E-05 -3.76078301E-05 -1.18195763E-06  4.04490235E-05
  1.12256452E-05 -5.16829742E-05 -2.56662514E-05 -8.05644706E-07 -1.13942452E-06
 -2.56036098E-05  2.82026180E-06 -5.81271061E-01 -2.05486675E-01 -1.48464522E-02
  3.20155224E-05 -3.47774483E-06  2.95172186E-01 -2.16759552E-01  4.66200149E-03
  2.99658636E-05 -3.25660597E-06  2.86137043E-01 -1.94238402E-01  4.65327383E-03
 -3.63803322E-05  3.90406815E-06  2.84591318E-05  6.16557815E-01  5.53347475E-03
 -1.91516140E-11  1.93845209E-11  1.57465691E-07  3.15685476E-07 -1.13081451E-05
  3.20832651E-10 -8.34264039E-07 -1.67882823E-06  6.00093449E-05  9.84309320E-07
  9.10144851E-07 -1.89465427E-06 -1.14469249E-06  4.08971124E-05  5.78421683E-05
 -1.38680075E-06  1.50458614E-07 -1.40092516E-02 -4.95197785E-03  6.16185540E-01
 -5.08857211E-05  5.48268068E-06 -1.76257255E-01  4.63905808E-01 -1.95911666E-01
  5.31577498E-05 -5.72839283E-06  1.90267437E-01 -4.73810548E-01 -1.95911989E-01
 -8.85289596E-07  9.50115221E-08  6.91045027E-07  1.48599834E-02 -2.24478537E-01
  5.69018075E-10  3.19571820E-09 -8.86079536E-04 -8.02296027E-04 -1.10185973E-01
 -1.53459941E-08  4.65197037E-03  4.21208992E-03  5.78481379E-01 -5.48168770E-03
 -7.68934807E-04  6.25062260E-03  2.86576350E-03  3.93571706E-01  5.56579585E-01
  2.56808250E-03 -2.85694337E-04 -1.82562690E-03 -2.23781041E-03 -2.46529273E-01
 -5.04855263E-01  5.61647670E-02 -3.27617089E-02 -4.53990034E-02 -3.21887102E-01
  4.97351859E-01 -5.53300138E-02  2.83402365E-02  4.11622780E-02 -3.20765853E-01
  4.93532466E-03 -5.49044594E-04 -2.88524030E-03 -1.79427076E-03 -2.46441898E-01
 -4.39376470E-08  6.08002667E-08  9.65359098E-02  5.31208137E-02 -1.16310120E-03
  4.60646086E-07 -5.06818815E-01 -2.78886497E-01  6.10632942E-03  5.97219338E-01
 -6.62215576E-02 -5.30997939E-01 -1.89751736E-01  4.15446374E-03  5.87514092E-03
 -9.97316270E-02  1.10954028E-02  2.09897537E-01  1.36047385E-01 -2.60271460E-03
  3.13421973E-01 -3.48680881E-02  2.35030214E-01  1.45877938E-01  4.42339323E-02
  3.24001067E-01 -3.60450078E-02  2.35674939E-01  1.46792272E-01 -5.10173999E-02
 -5.37691700E-01  5.98173542E-02  3.14339211E-01  1.18768780E-01 -2.60123401E-03
 -1.12252225E-08  4.34794468E-07  5.31261752E-02 -9.65396968E-02  2.75708098E-04
 -8.78931115E-07 -2.78914842E-01  5.06836501E-01 -1.44747754E-03  3.28683947E-01
 -5.86662568E-01  2.57978375E-01  3.44807289E-01 -9.84799190E-04 -1.39268164E-03
  6.05597511E-01 -6.73730623E-02  1.55760381E-01 -3.20443307E-01  6.17585714E-04
 -1.53588008E-01  1.70872648E-02  1.09471490E-01 -2.29197069E-01 -2.23349001E-02
 -1.56095744E-01  1.73662584E-02  1.09318981E-01 -2.29414770E-01  2.39424764E-02
 -2.95913824E-01  3.29205157E-02  1.72990601E-01 -2.15924209E-01  6.16413621E-04
  3.96622587E-08  7.45244588E-07 -4.88861540E-02  1.56363988E-01 -3.28638874E-04
 -1.32547885E-06 -1.97170341E-01  6.30654874E-01 -1.32547692E-03 -1.41863287E-01
  3.91760924E-01 -2.49897168E-01 -2.61945641E-01  5.50570957E-04  7.78605255E-04
 -5.57892021E-02  5.34098894E-01 -8.23681526E-02  1.61202754E-01  1.30418418E-03
  1.94736976E-02 -1.86429162E-01  2.90476065E-01 -4.84092684E-01  2.37611032E-01
  1.96565763E-02 -1.88179936E-01  2.91382053E-01 -4.82811450E-01 -2.37221839E-01
  1.66596910E-02 -1.59489248E-01 -5.35908576E-02 -6.20520148E-01  1.30418390E-03
  9.48750518E-10  9.51021450E-09 -3.11507915E-03 -6.29650521E-04  1.63797619E-01
 -2.06885857E-08 -1.25638947E-02 -2.53952773E-03  6.60636212E-01 -9.03891695E-03
  3.22746363E-03  5.81146128E-03  1.05507880E-03 -2.74412006E-01 -3.88067716E-01
 -1.51528918E-04  1.45070656E-03  1.16113586E-02  4.62202636E-03 -6.50021991E-01
  4.51190323E-02 -4.31948953E-01  2.35886878E-01  3.18602497E-01 -1.02509657E-01