methane                                                                 
Freq      RB3LYP                                                      6-31G(d,p)          
Number of atoms                            I                5
Info1-9                                    I   N=           9
          13          10           0           0           0         100
           6          18        -502
Full Title                                 C   N=           1
methane     
Route                                      C   N=           4
#P b3lyp 6-31G(d,p) freq nosymm geom=check      
Charge                                     I                0
Multiplicity                               I                1
Number of electrons                        I               18
Number of alpha electrons                  I                9
Number of beta electrons                   I                9
Number of basis functions                  I               45
Number of independent functions            I               45
Number of point charges in /Mol/           I                0
Number of translation vectors              I                0
Atomic numbers                             I   N=           5
           6           9           1           1           1
Nuclear charges                            R   N=           5
  6.00000000E+00  9.00000000E+00  1.00000000E+00  1.00000000E+00  1.00000000E+00
Current cartesian coordinates              R   N=          15
 -2.63335452E+00  8.73907398E-01 -7.16246350E-05 -1.75259453E+00 -1.58724510E+00
  1.62560256E-03 -1.95107694E+00  1.86085719E+00  1.68771982E+00 -1.95068594E+00
  1.85870245E+00 -1.68896285E+00 -4.70415411E+00  8.74464763E-01 -3.10943681E-04
Number of symbols in /Mol/                 I                0
Force Field                                I                0
Atom Types                                 C   N=           5
                                                            
Int Atom Types                             I   N=           5
           0           0           0           0           0
MM charges                                 R   N=           5
  0.00000000E+00  0.00000000E+00  0.00000000E+00  0.00000000E+00  0.00000000E+00
Integer atomic weights                     I   N=           5
          12          19           1           1           1
Real atomic weights                        R   N=           5
  1.20000000E+01  1.89984032E+01  1.00782504E+00  1.00782504E+00  1.00782504E+00
Atom fragment info                         I   N=           5
           0           0           0           0           0
Atom residue num                           I   N=           5
           0           0           0           0           0
Nuclear spins                              I   N=           5
           0           1           1           1           1
Nuclear ZEff                               R   N=           5
 -3.60000000E+00 -6.75000000E+00 -1.00000000E+00 -1.00000000E+00 -1.00000000E+00
Nuclear ZNuc                               R   N=           5
  6.00000000E+00  9.00000000E+00  1.00000000E+00  1.00000000E+00  1.00000000E+00
Nuclear QMom                               R   N=           5
  0.00000000E+00  0.00000000E+00  0.00000000E+00  0.00000000E+00  0.00000000E+00
Nuclear GFac                               R   N=           5
  0.00000000E+00  2.62886700E+00  2.79284600E+00  2.79284600E+00  2.79284600E+00
MicOpt                                     I   N=           5
          -1          -1          -1          -1          -1
Number of residues                         I                0
Number of secondary structures             I                0
Redundant internal dimensions              I   N=           4
          14           4           6           4
Redundant internal coordinate indices      I   N=          56
           1           2           0           0           1           3
           0           0           1           4           0           0
           1           5           0           0           2           1
           3           0           2           1           4           0
           2           1           5           0           3           1
           4           0           3           1           5           0
           4           1           5           0           2           1
           4           3           2           1           5           3
           2           1           5           4           3           1
           5           4
Redundant internal coordinates             R   N=          14
  2.61400319E+00  2.07079998E+00  2.07079967E+00  2.07079967E+00  1.91472896E+00
  1.91474539E+00  1.91472960E+00  1.90652523E+00  1.90650807E+00  1.90650881E+00
 -2.09940662E+00  2.09938632E+00 -2.09940693E+00  2.08439205E+00
ZRed-IntVec                                I   N=          14
           0           0           0           0           0           0
           0           0           0           0           0           0
           0           0
ZRed-FPVec                                 R   N=          14
  0.00000000E+00  0.00000000E+00  0.00000000E+00  0.00000000E+00  0.00000000E+00
  0.00000000E+00  0.00000000E+00  0.00000000E+00  0.00000000E+00  0.00000000E+00
  0.00000000E+00  0.00000000E+00  0.00000000E+00  0.00000000E+00
ZRed-Constraint1                           R   N=          14
  2.61400319E+00  2.07079998E+00  2.07079967E+00  2.07079967E+00  1.91472896E+00
  1.91474539E+00  1.91472960E+00  1.90652523E+00  1.90650807E+00  1.90650881E+00
 -2.09940662E+00  2.09938632E+00 -2.09940693E+00  2.08439205E+00
ZRed-Constraint2                           R   N=          14
  2.02200695E+00  2.02200695E+00  2.02200695E+00  2.02200695E+00  1.91063292E+00
  1.91063292E+00  1.91063342E+00  1.91063376E+00  1.91063320E+00  1.91063320E+00
 -2.09439484E+00  2.09439481E+00 -2.09439481E+00  2.09439570E+00
Number of contracted shells                I               17
Number of primitive shells                 I               37
Pure/Cartesian d shells                    I                1
Pure/Cartesian f shells                    I                0
Highest angular momentum                   I                2
Largest degree of contraction              I                6
Shell types                                I   N=          17
           0          -1          -1           2           0          -1
          -1           2           0           0           1           0
           0           1           0           0           1
Number of primitives per shell             I   N=          17
           6           3           1           1           6           3
           1           1           3           1           1           3
           1           1           3           1           1
Shell to atom map                          I   N=          17
           1           1           1           1           2           2
           2           2           3           3           3           4
           4           4           5           5           5
Primitive exponents                        R   N=          37
  3.04752488E+03  4.57369518E+02  1.03948685E+02  2.92101553E+01  9.28666296E+00
  3.16392696E+00  7.86827235E+00  1.88128854E+00  5.44249258E-01  1.68714478E-01
  8.00000000E-01  7.00171309E+03  1.05136609E+03  2.39285690E+02  6.73974453E+01
  2.15199573E+01  7.40310130E+00  2.08479528E+01  4.80830834E+00  1.34406986E+00
  3.58151393E-01  8.00000000E-01  1.87311370E+01  2.82539436E+00  6.40121692E-01
  1.61277759E-01  1.10000000E+00  1.87311370E+01  2.82539436E+00  6.40121692E-01
  1.61277759E-01  1.10000000E+00  1.87311370E+01  2.82539436E+00  6.40121692E-01
  1.61277759E-01  1.10000000E+00
Contraction coefficients                   R   N=          37
  1.83473713E-03  1.40373228E-02  6.88426223E-02  2.32184443E-01  4.67941348E-01
  3.62311985E-01 -1.19332420E-01 -1.60854152E-01  1.14345644E+00  1.00000000E+00
  1.00000000E+00  1.81961690E-03  1.39160796E-02  6.84053245E-02  2.33185760E-01
  4.71267439E-01  3.56618546E-01 -1.08506975E-01 -1.46451658E-01  1.12868858E+00
  1.00000000E+00  1.00000000E+00  3.34946043E-02  2.34726953E-01  8.13757326E-01
  1.00000000E+00  1.00000000E+00  3.34946043E-02  2.34726953E-01  8.13757326E-01
  1.00000000E+00  1.00000000E+00  3.34946043E-02  2.34726953E-01  8.13757326E-01
  1.00000000E+00  1.00000000E+00
P(S=P) Contraction coefficients            R   N=          37
  0.00000000E+00  0.00000000E+00  0.00000000E+00  0.00000000E+00  0.00000000E+00
  0.00000000E+00  6.89990666E-02  3.16423961E-01  7.44308291E-01  1.00000000E+00
  0.00000000E+00  0.00000000E+00  0.00000000E+00  0.00000000E+00  0.00000000E+00
  0.00000000E+00  0.00000000E+00  7.16287242E-02  3.45912103E-01  7.22469956E-01
  1.00000000E+00  0.00000000E+00  0.00000000E+00  0.00000000E+00  0.00000000E+00
  0.00000000E+00  0.00000000E+00  0.00000000E+00  0.00000000E+00  0.00000000E+00
  0.00000000E+00  0.00000000E+00  0.00000000E+00  0.00000000E+00  0.00000000E+00
  0.00000000E+00  0.00000000E+00
Coordinates of each shell                  R   N=          51
 -2.63335452E+00  8.73907398E-01 -7.16246350E-05 -2.63335452E+00  8.73907398E-01
 -7.16246350E-05 -2.63335452E+00  8.73907398E-01 -7.16246350E-05 -2.63335452E+00
  8.73907398E-01 -7.16246350E-05 -1.75259453E+00 -1.58724510E+00  1.62560256E-03
 -1.75259453E+00 -1.58724510E+00  1.62560256E-03 -1.75259453E+00 -1.58724510E+00
  1.62560256E-03 -1.75259453E+00 -1.58724510E+00  1.62560256E-03 -1.95107694E+00
  1.86085719E+00  1.68771982E+00 -1.95107694E+00  1.86085719E+00  1.68771982E+00
 -1.95107694E+00  1.86085719E+00  1.68771982E+00 -1.95068594E+00  1.85870245E+00
 -1.68896285E+00 -1.95068594E+00  1.85870245E+00 -1.68896285E+00 -1.95068594E+00
  1.85870245E+00 -1.68896285E+00 -4.70415411E+00  8.74464763E-01 -3.10943681E-04
 -4.70415411E+00  8.74464763E-01 -3.10943681E-04 -4.70415411E+00  8.74464763E-01
 -3.10943681E-04
Num ILSW                                   I              100
ILSW                                       I   N=         100
           0           1           0           0           2           0
           0           0           0           0         402          -1
           5           0           0           0           2           0
           0           0           0           0           1           0
           1           1           0           0           0           0
           0           0      100000           0          -1           0
           0           0           0           0           0           0
           0           0           0           1           0           0
           0 -2000000000           1           0           0           0
           0           0           4          52           0           0
           0           0           5           0           0           0
           0           0           0           5           0           1
           0           0           0           0           0           0
           0           0           0           0           0           0
           0           0           0           0           0           0
           0           0           0           0           0           0
           0           0           0           0
Num RLSW                                   I               52
RLSW                                       R   N=          52
  8.00000000E-01  7.20000000E-01  1.00000000E+00  8.10000000E-01  2.00000000E-01
  0.00000000E+00  0.00000000E+00  1.00000000E+00  0.00000000E+00  0.00000000E+00
  0.00000000E+00  0.00000000E+00  1.00000000E+00  0.00000000E+00  0.00000000E+00
  0.00000000E+00  0.00000000E+00  1.00000000E+00  0.00000000E+00  0.00000000E+00
  0.00000000E+00  0.00000000E+00  1.00000000E+00  0.00000000E+00  0.00000000E+00
  0.00000000E+00  0.00000000E+00  1.00000000E+00  0.00000000E+00  0.00000000E+00
  0.00000000E+00  0.00000000E+00  1.00000000E+00  0.00000000E+00  0.00000000E+00
  0.00000000E+00  0.00000000E+00  0.00000000E+00  1.00000000E+00  1.00000000E+00
  0.00000000E+00  1.00000000E+00  0.00000000E+00  0.00000000E+00  0.00000000E+00
  0.00000000E+00  0.00000000E+00  0.00000000E+00  0.00000000E+00  0.00000000E+00
  0.00000000E+00  0.00000000E+00
MxBond                                     I                4
NBond                                      I   N=           5
           4           1           1           1           1
IBond                                      I   N=          20
           2           3           4           5           1           0
           0           0           1           0           0           0
           1           0           0           0           1           0
           0           0
RBond                                      R   N=          20
  3.00000000E+00  1.00000000E+00  1.00000000E+00  1.00000000E+00  3.00000000E+00
  0.00000000E+00  0.00000000E+00  0.00000000E+00  1.00000000E+00  0.00000000E+00
  0.00000000E+00  0.00000000E+00  1.00000000E+00  0.00000000E+00  0.00000000E+00
  0.00000000E+00  1.00000000E+00  0.00000000E+00  0.00000000E+00  0.00000000E+00
Virial Ratio                               R      2.007395582640150E+00
SCF Energy                                 R     -1.397382924744993E+02
Total Energy                               R     -1.397382924744993E+02
RMS Force                                  R      3.032660818665321E-06
RMS Density                                R      1.000480462011825E-09
NImag                                      I                0
Job Status                                 I                1
Nuclear derivative order                   I                2
External E-field                           R   N=          35
  0.00000000E+00  0.00000000E+00  0.00000000E+00  0.00000000E+00  0.00000000E+00
  0.00000000E+00  0.00000000E+00  0.00000000E+00  0.00000000E+00  0.00000000E+00
  0.00000000E+00  0.00000000E+00  0.00000000E+00  0.00000000E+00  0.00000000E+00
  0.00000000E+00  0.00000000E+00  0.00000000E+00  0.00000000E+00  0.00000000E+00
  0.00000000E+00  0.00000000E+00  0.00000000E+00  0.00000000E+00  0.00000000E+00
  0.00000000E+00  0.00000000E+00  0.00000000E+00  0.00000000E+00  0.00000000E+00
  0.00000000E+00  0.00000000E+00  0.00000000E+00  0.00000000E+00  0.00000000E+00
IOpCl                                      I                0
IROHF                                      I                0
Alpha Orbital Energies                     R   N=          45
 -2.46664266E+01 -1.02556030E+01 -1.17331055E+00 -6.95192057E-01 -4.75965082E-01
 -4.71415777E-01 -4.71414534E-01 -3.32448322E-01 -3.32447131E-01  1.05923298E-01
  1.31260981E-01  1.64548256E-01  1.64549239E-01  5.16368383E-01  5.42563652E-01
  5.42566181E-01  8.24592302E-01  8.24593364E-01  8.35364143E-01  9.47423368E-01
  1.16925924E+00  1.20140846E+00  1.20141143E+00  1.43233415E+00  1.43233550E+00
  1.78771037E+00  1.82249831E+00  1.82249889E+00  1.98787104E+00  1.98787817E+00
  1.99570379E+00  2.01898230E+00  2.05984812E+00  2.05985309E+00  2.58446617E+00
  2.58447981E+00  2.62116856E+00  2.86175049E+00  2.86175450E+00  2.97654285E+00
  3.15061221E+00  3.39191323E+00  3.39191632E+00  4.06615563E+00  4.39603085E+00
Alpha MO coefficients                      R   N=        2025
  6.19658237E-07  1.13396493E-04  2.12168925E-04 -5.92877235E-04  4.10121793E-07
 -6.83210608E-04 -1.54651703E-04  4.32146991E-04 -2.95187847E-07  1.34344504E-04
  5.53961068E-04  7.27124592E-05 -1.98864431E-04  1.38792359E-07 -3.83330480E-07
  9.93016633E-01  1.97178178E-02 -2.52064069E-04  7.04358302E-04 -4.87368837E-07
  1.48985821E-02  1.41281448E-04 -3.94790618E-04  2.72403149E-07 -7.96126719E-03
 -8.33308700E-03 -7.90665540E-03  1.76213131E-04 -1.21358683E-07  3.39260948E-07
  1.65582883E-05 -6.25193041E-05  5.86052791E-06  6.73223037E-05  4.87953579E-05
  1.65608153E-05 -6.25154980E-05  5.87292123E-06  6.72544640E-05 -4.88792415E-05
  1.65585807E-05 -6.25188638E-05 -7.37765160E-05  3.87890442E-05 -3.36844864E-08
  9.92932689E-01  4.85266206E-02  3.48749647E-04 -9.74543745E-04  6.69254711E-07
 -1.24579079E-02  2.70720432E-04 -7.56359592E-04  5.04182691E-07 -8.97675759E-03
 -8.59235076E-03 -9.03320735E-03 -1.82175916E-04  1.25791368E-07 -3.56092889E-07
 -1.11652979E-04 -2.58035376E-04 -1.92231739E-05  5.37188251E-05 -3.62851714E-08
  1.49592939E-03  2.94753989E-04 -8.23660004E-04  5.65046244E-07 -1.78880633E-04
 -1.02994000E-03 -5.38811086E-05  4.03333024E-04 -2.78271268E-07  7.75980055E-07
 -2.14507797E-04  2.50805038E-03  5.58742620E-06  8.59088164E-05  5.91848555E-05
 -2.14512640E-04  2.50804121E-03  5.60386543E-06  8.58329619E-05 -5.92955039E-05
 -2.14501545E-04  2.50807049E-03 -9.10083264E-05  5.12962998E-05 -4.22802494E-08
 -6.08047993E-02  1.11475078E-01  3.26268978E-02 -9.11712070E-02  6.29483211E-05
  3.94067788E-02  1.92485589E-03 -5.37826843E-03  3.57764799E-06 -9.28919408E-03
  1.48668932E-02 -1.28372063E-02 -1.14480628E-02  7.90471905E-06 -2.20294358E-05
 -2.22107528E-01  4.96168815E-01 -3.05923677E-02  8.54858621E-02 -5.89764472E-05
  4.65586002E-01 -1.54949395E-02  4.32981930E-02 -2.98388406E-05  9.49025454E-03
  2.45302022E-02  7.28125803E-03 -7.12772917E-03  4.91531743E-06 -1.37460684E-05
  1.73695665E-02  3.98671058E-03 -9.65725382E-04 -3.20803778E-03 -3.44452613E-03
  1.73692820E-02  3.98648199E-03 -9.66492332E-04 -3.20365911E-03  3.44839201E-03
  1.73695831E-02  3.98675461E-03  4.65426278E-03 -1.19446699E-03  1.31858655E-06
 -1.87498413E-01  3.87321912E-01 -2.22425333E-02  6.21494486E-02 -4.23670614E-05
  3.16329550E-01 -1.48159259E-02  4.13992060E-02 -2.84594945E-05 -7.59886622E-03
 -1.41463404E-02 -6.63701640E-03  3.10297201E-03 -2.11020238E-06  5.87257150E-06
  7.04418969E-02 -1.49733617E-01 -6.02201357E-02  1.68274921E-01 -1.15733671E-04
 -2.32430137E-01 -3.57652616E-02  9.99401707E-02 -6.87121806E-05  1.88400055E-03
  1.69481723E-02 -3.28607052E-04 -7.13927102E-03  4.91973712E-06 -1.37144462E-05
  1.44142036E-01  4.53430033E-02 -4.52061097E-03 -5.52124241E-03 -1.05894255E-02
  1.44142355E-01  4.53431244E-02 -4.52306606E-03 -5.50775982E-03  1.05954366E-02
  1.44142487E-01  4.53429500E-02  1.27519053E-02  6.67293344E-04  1.04485454E-06
  1.13684686E-02 -1.38649294E-02  1.17867485E-01 -3.29349504E-01  2.59396661E-04
 -3.77869280E-02  3.57910694E-02 -1.00006521E-01  8.33596314E-05 -7.98952318E-03
  2.70578696E-02 -1.31372056E-02 -1.66097294E-02  1.26636323E-05 -3.15564434E-05
  4.80613359E-02 -6.42013777E-02 -1.76861388E-01  4.94226045E-01 -3.11176484E-04
 -2.48362640E-01 -1.08248184E-01  3.02492129E-01 -1.89381731E-04  1.53457916E-02
  3.37853733E-02  1.26376206E-02 -8.73858544E-03  5.56859975E-06 -1.53767194E-05
 -8.01527462E-02 -6.33920038E-02  3.41097006E-03 -3.78861475E-03  3.35416969E-03
 -8.01845305E-02 -6.34145067E-02  3.41234464E-03 -3.79192061E-03 -3.34891940E-03
 -8.01708348E-02 -6.34047718E-02 -2.05406496E-03 -5.74618979E-03  4.01308542E-06
 -7.01314442E-07  6.98214610E-07  1.15656741E-02  4.43180627E-03  3.80850171E-01
  2.03919468E-06  5.34724380E-03  2.04409483E-03  1.76036425E-01 -3.08523931E-04
 -8.85227249E-05  3.96707635E-04 -1.96231580E-04  1.40858826E-02  2.42534037E-03
 -3.93346564E-06  5.09934239E-06  1.13855845E-02  4.28465181E-03  3.74090598E-01
  2.05059019E-05  7.40263791E-03  2.78747646E-03  2.43240644E-01 -3.57495090E-04
  3.55304490E-04 -3.06840903E-06  4.65958702E-04 -5.77622139E-03  1.82115653E-02
  1.76593580E-01  1.26039128E-01 -2.81400676E-03 -5.79589522E-03 -2.17664560E-03
 -1.70092934E-01 -1.21397825E-01  3.07810074E-03  5.71265637E-03 -1.87735592E-03
 -6.47942219E-03 -4.62400370E-03 -2.01193195E-04  1.08508240E-04  6.13551583E-03
 -7.36056993E-07  1.50718435E-06  3.58580449E-01  1.28318896E-01 -1.23830427E-02
  1.93872890E-06  1.65743511E-01  5.93112457E-02 -5.72389309E-03 -9.45547852E-03
 -2.73804004E-03  1.21932155E-02 -6.37078384E-03 -4.55195533E-04 -6.82852848E-05
 -3.49694439E-07  3.25573749E-07  3.52223994E-01  1.26036261E-01 -1.21628048E-02
  2.13217851E-06  2.29022765E-01  8.19514462E-02 -7.90843201E-03 -1.10273132E-02
  1.04215090E-02  6.05131402E-04  1.45366606E-02  1.76176497E-04 -5.95775203E-04
  9.44616626E-02  6.74198605E-02  4.17192905E-03 -1.07128762E-03 -4.64576450E-03
  1.05697131E-01  7.54384848E-02  3.97984531E-03 -1.43821395E-03  4.77973944E-03
 -2.00157281E-01 -1.42857038E-01 -6.19166999E-03  3.21100468E-03 -2.01604744E-04
  1.46211396E-07 -1.73493344E-08  5.06516009E-02  1.79437230E-02 -2.64882525E-01
 -1.46441237E-06  7.15859540E-03  2.53498793E-03 -3.74351887E-02 -5.30397650E-03
  2.98904965E-03  2.31508634E-03  3.78580656E-03 -2.29494271E-03 -3.20881214E-02
 -5.85194815E-08  3.65450564E-07 -1.03037194E-01 -3.64985673E-02  5.38832530E-01
 -6.10725933E-08 -7.51601209E-02 -2.66239281E-02  3.93050177E-01  1.14269354E-03
 -1.30228301E-03  1.59837652E-04 -1.88892781E-03 -4.83492971E-03  1.05997404E-02
 -1.56982068E-01 -1.85303654E-01  5.50368715E-03  2.05146686E-03  6.61951681E-04
  1.98657868E-01  2.34500350E-01 -3.91877427E-03 -1.50388095E-03  2.70686232E-03
 -4.16776793E-02 -4.91969163E-02 -8.83507912E-04 -2.99383437E-04 -7.03615705E-03
  2.15508074E-07 -4.48330512E-07 -2.49385120E-01 -8.92837211E-02 -5.37359048E-02
 -8.81393340E-07 -3.52483570E-02 -1.26198264E-02 -7.59531233E-03  2.61332328E-02
 -1.49083141E-02 -1.12248615E-02 -1.86400288E-02 -4.48063917E-04 -6.51249619E-03
  3.07234285E-08  6.61697582E-08  5.07298963E-01  1.81619342E-01  1.09310398E-01
 -4.56775396E-07  3.70048607E-01  1.32481998E-01  7.97364122E-02 -5.62408605E-03
  6.47756372E-03 -8.53294570E-04  9.28345692E-03 -9.88327017E-04  2.14691639E-03
 -1.38757860E-01 -1.63791537E-01 -2.94927574E-03 -9.79727298E-04  5.37707129E-03
 -6.65715940E-02 -7.85825819E-02 -4.86066928E-03 -1.70802284E-03 -4.69241903E-03
  2.05330209E-01  2.42374882E-01  4.35682856E-03  1.45162685E-03 -1.42865802E-03
 -9.52482442E-02  1.27426099E-01 -1.09513230E-01  3.06014153E-01 -2.05408385E-04
  1.73139199E+00 -3.12450388E-01  8.73076598E-01 -5.85872895E-04 -1.89459645E-02
 -2.15730065E-03 -2.14122014E-02 -7.95666495E-03  5.31287364E-06 -1.54394198E-05
 -3.75433329E-02  6.18804271E-02 -3.62006005E-02  1.01156875E-01 -7.05071159E-05
  3.57670281E-01 -5.85350101E-02  1.63567660E-01 -1.14220563E-04 -1.25529841E-02
  3.46549679E-03 -1.49058431E-02 -7.59147510E-03  5.16716261E-06 -1.46045176E-05
 -4.08062119E-02 -1.01131466E+00 -5.99483255E-03  5.89253872E-03 -6.34093139E-03
 -4.08032571E-02 -1.01129462E+00 -5.99634642E-03  5.90086626E-03  6.33208738E-03
 -4.08040274E-02 -1.01130162E+00  4.33740023E-03  9.59443782E-03 -5.55511779E-06
 -1.39213145E-01  2.31510102E-01  8.95456996E-02 -2.50197871E-01  1.56738712E-04
  1.65812481E+00  2.40474559E-01 -6.71918412E-01  4.24383611E-04  5.02462682E-03
 -2.57777041E-02  9.54810650E-03  1.45978538E-02 -9.42047380E-06  2.84505638E-05
  8.18252680E-02 -5.98743332E-02  1.13433416E-01 -3.16980627E-01  2.23387168E-04
 -9.29452572E-01  1.73788549E-01 -4.85636078E-01  3.41806736E-04  5.40296919E-02
  4.57555341E-02  5.52448227E-02  3.92146994E-03 -2.42683859E-06  7.46732838E-06
  9.00310955E-03 -5.48072911E-01  5.36540610E-03 -1.33291725E-02  9.78773674E-04
  8.99520348E-03 -5.48159939E-01  5.36544663E-03 -1.33312031E-02 -9.60576045E-04
  9.00327961E-03 -5.48078020E-01  3.78346467E-03 -1.38959782E-02  8.89560207E-06
  1.54300025E-06 -1.57868498E-06  4.21312539E-01  1.50835754E-01  8.69330078E-02
 -2.74661297E-05  1.17568183E+00  4.20913508E-01  2.42591661E-01  1.69918619E-02
 -3.95762789E-04 -1.65960727E-02  2.87346766E-03 -3.23314937E-03 -2.02555418E-03
 -8.88824183E-07 -7.54956977E-07 -9.94321693E-02 -3.55943505E-02 -2.05157375E-02
  1.35338779E-05 -1.62061211E-01 -5.80128380E-02 -3.34385593E-02  2.66903271E-03
  3.94642049E-03 -6.61881460E-03  6.91790778E-03 -1.78234989E-03  5.56865388E-04
 -6.22411704E-02 -1.13568209E+00  8.22076345E-03  4.23751694E-04 -8.40548906E-03
 -3.08886154E-02 -5.63584984E-01  1.08827848E-02  2.65349876E-03  8.34387903E-03
  9.31263526E-02  1.69930104E+00 -5.89567061E-03  1.65171437E-03  2.78691758E-03
 -4.08872988E-06  6.22621532E-06 -8.19434649E-02 -2.90317155E-02  4.47500711E-01
  4.87632338E-05 -2.28660765E-01 -8.10212614E-02  1.24876849E+00 -3.29886231E-03
  6.43030460E-05  3.23477863E-03 -5.67822854E-04 -1.66475843E-02 -1.03584866E-02
  3.56981780E-06 -1.21469437E-06  1.93450646E-02  6.83661161E-03 -1.05611769E-01
 -4.55594068E-05  3.15298135E-02  1.11410793E-02 -1.72133555E-01 -5.14144683E-04
 -7.61516521E-04  1.28383219E-03 -1.35097762E-03 -9.15231220E-03  2.90292745E-03
 -7.15955924E-02 -1.30649942E+00 -8.70907066E-03 -6.00692450E-03  1.47152959E-03
  8.96996065E-02  1.63677512E+00  4.99632298E-03  5.40779620E-03 -1.79024682E-03
 -1.80997177E-02 -3.30311658E-01  1.14435018E-03 -3.12068960E-04  1.43470719E-02
 -3.38458268E-02  3.62182995E-01  3.22614881E-01 -9.01526072E-01  6.22201028E-04
 -3.32996123E-01 -4.43648719E-01  1.23978156E+00 -8.66588708E-04  1.47667676E-02
 -7.38442733E-02  2.77789518E-02  4.19941194E-02 -2.82053557E-05  8.17321336E-05
 -9.56063129E-03 -1.58872124E-01  1.10838165E-01 -3.09727156E-01  2.15374065E-04
  7.91242527E-01 -4.70333584E-02  1.31419223E-01 -8.93877611E-05 -8.32916836E-02
  5.77827891E-02 -1.04012953E-01 -6.68584120E-02  4.63330120E-05 -1.28940359E-04
 -6.81994604E-02 -6.56059796E-02  9.78536620E-03 -5.89809397E-03  1.25169015E-02
 -6.82099523E-02 -6.56159367E-02  9.78807201E-03 -5.91335246E-03 -1.25079107E-02
 -6.81923135E-02 -6.56004187E-02 -1.06176246E-02 -1.32085631E-02  6.84831243E-06
  3.11542710E-07 -1.10160145E-05 -6.83458445E-01 -2.44657874E-01 -1.24368021E-01
  8.70064973E-06  1.61557599E+00  5.78345972E-01  2.93987523E-01  6.85697942E-02
  7.08335469E-05 -6.86426132E-02  1.42853131E-02 -1.19737365E-02 -6.89406114E-03
 -4.98466193E-08 -9.41944221E-07 -1.45012484E-01 -5.19080010E-02 -2.63866649E-02
 -4.30650352E-06 -1.67468745E-01 -5.99540162E-02 -3.04747599E-02  2.46371729E-02
 -1.07581315E-02 -1.38819594E-02 -1.22526130E-02 -1.27916863E-03 -4.55137522E-03
 -2.78615777E-01 -3.28145891E-01  3.28158442E-02  1.99940867E-02  8.64308222E-03
 -1.51041468E-01 -1.77882953E-01  3.34061010E-02  1.64276661E-02  4.87962067E-03
  4.29649157E-01  5.06043440E-01  4.22328214E-02  2.40491841E-03  6.21311672E-03
 -4.73277864E-07  7.25936892E-06  1.17256582E-01  4.14511827E-02 -7.25928492E-01
 -3.75433661E-06 -2.77168865E-01 -9.80090988E-02  1.71600358E+00 -1.17399970E-02
 -5.76720235E-05  1.17991307E-02 -2.48971957E-03 -6.99008576E-02 -3.99208788E-02
  4.70240944E-07 -6.08030133E-07  2.48808203E-02  8.79418036E-03 -1.54027429E-01
 -2.87180934E-06  2.87316044E-02  1.01568935E-02 -1.77878043E-01 -4.22160311E-03
  1.81429261E-03  2.40854111E-03  2.09802100E-03 -7.54102129E-03 -2.65238017E-02
 -3.35259750E-01 -3.94894383E-01 -7.40075992E-03  7.29777953E-03  3.91581125E-02
  4.08918308E-01  4.81643315E-01 -3.96088534E-03 -1.34896569E-02  3.98166877E-02
 -7.36548586E-02 -8.67538869E-02 -7.24453258E-03 -3.88896496E-04  3.62230964E-02
  1.11373655E-05 -3.01190589E-06 -6.70685017E-01 -2.39954040E-01  1.17767098E-01
 -5.13858141E-05  1.24212115E+00  4.44362815E-01 -2.18106273E-01 -2.30465985E-01
  6.62376651E-02  1.64247041E-01  5.93119635E-02 -2.09800063E-02 -3.45185632E-02
  1.03716982E-06  6.28611669E-05  8.77092220E-02  3.13759757E-02 -1.54007025E-02
 -9.60503185E-05 -1.24915647E-01 -4.46726335E-02  2.19337912E-02  5.33106646E-02
 -4.55690037E-02 -7.65987885E-03 -6.25884083E-02 -3.28345080E-03  1.36747118E-02
  2.82128930E-01 -6.10717913E-01 -2.67332262E-02  1.13720475E-02  4.43331698E-02
  5.08273891E-01 -1.10035877E+00 -1.58020083E-02  3.19785448E-02 -6.00761528E-02
 -7.90177385E-01  1.71098777E+00  9.17124323E-02 -2.57614665E-02  7.10784473E-03
  2.30432166E-06  3.72044943E-06  1.10726855E-01  4.01067980E-02  7.12317759E-01
 -1.94517662E-05 -2.05062686E-01 -7.42847322E-02 -1.31921587E+00  3.81081958E-02
 -1.11847477E-02 -2.69193600E-02 -9.85367418E-03 -1.26420072E-01 -2.09416637E-01
  3.21086371E-07  1.09134927E-05 -1.44797153E-02 -5.24755939E-03 -9.31545317E-02
 -1.48118260E-05  2.06202397E-02  7.47333843E-03  1.32665061E-01 -8.79461933E-03
  7.63513334E-03  1.17470134E-03  1.03159217E-02 -2.01763098E-02  8.26349316E-02
 -7.49646557E-01  1.62312445E+00 -2.95219658E-02 -6.61811211E-02 -5.61266683E-02
  6.19112120E-01 -1.34044044E+00  3.65641892E-02  5.89559990E-02 -3.89553682E-02
  1.30581184E-01 -2.82696595E-01 -1.51602333E-02  4.28288918E-03  4.28525934E-02
 -9.99703712E-02  1.05944047E-01 -4.69383107E-02  1.30949444E-01 -6.11128054E-05
  2.71407503E-01 -1.74294052E-02  4.90523410E-02 -8.02296601E-05 -1.03295755E-01
  6.31468542E-02 -1.27698328E-01 -7.88587853E-02  4.72905857E-05 -1.57707013E-04
 -1.06843252E-02 -6.15031154E-01 -1.98830324E-03  5.59680869E-03 -6.22488623E-06
  9.83113861E-01  4.40044514E-02 -1.23004717E-01  8.79476062E-05 -2.54540464E-01
 -2.92202281E-01 -2.49016602E-01  1.78366580E-02 -1.33159669E-05  3.68453643E-05
 -6.88273747E-01  3.20018996E-01 -3.76224810E-02 -4.85530672E-03 -6.41660484E-02
 -6.88216049E-01  3.19905367E-01 -3.76340406E-02 -4.76830572E-03  6.41599612E-02
 -6.88374428E-01  3.20212670E-01  6.70276762E-02  3.26308952E-02 -1.06596012E-05
 -3.29699268E-02 -1.81024415E+00  1.31177887E-01 -3.66546480E-01  2.51996612E-04
  4.43968606E+00 -2.64452722E-01  7.38913324E-01 -5.01291838E-04 -5.59224061E-02
 -2.44824896E-02 -6.05377165E-02 -1.48984063E-02  8.59918741E-06 -2.88708652E-05
 -1.31190309E-02 -5.82603428E-01 -6.19634231E-02  1.73154949E-01 -1.16054587E-04
  7.50229610E-01  1.21469796E-01 -3.39430197E-01  2.31073430E-04 -2.30371859E-01
 -3.29779470E-01 -2.15771609E-01  4.71109229E-02 -3.27438692E-05  9.01941531E-05
  7.27217928E-02 -1.24985193E+00  1.33535379E-02  3.17795768E-02  4.02985806E-02
  7.27270059E-02 -1.24985646E+00  1.33641046E-02  3.17280725E-02 -4.03363688E-02
  7.27183389E-02 -1.24985916E+00 -5.23890860E-02  8.22325473E-03 -1.04880511E-05
  6.45273758E-02  8.76429805E-01  5.21614483E-02 -1.45761998E-01  9.86560244E-05