acn                                                                     
Freq      RB3LYP                                                      6-31G(d,p)          
Number of atoms                            I                6
Info1-9                                    I   N=           9
          13          10           0           0           0         100
           6          18        -502
Full Title                                 C   N=           1
acn         
Route                                      C   N=           4
#P b3lyp 6-31G(d,p) freq nosymm geom=check      
Charge                                     I                0
Multiplicity                               I                1
Number of electrons                        I               22
Number of alpha electrons                  I               11
Number of beta electrons                   I               11
Number of basis functions                  I               60
Number of independent functions            I               60
Number of point charges in /Mol/           I                0
Number of translation vectors              I                0
Atomic numbers                             I   N=           6
           7           6           6           1           1           1
Nuclear charges                            R   N=           6
  7.00000000E+00  6.00000000E+00  6.00000000E+00  1.00000000E+00  1.00000000E+00
  1.00000000E+00
Current cartesian coordinates              R   N=          18
  2.37125999E+00 -1.26826470E-05 -4.67392802E-05 -2.58091529E+00  4.22992005E-05
  4.84685236E-05  1.78676012E-01  1.62018892E-05 -3.80531003E-06 -3.29668505E+00
 -1.57337384E+00  1.13231635E+00 -3.29673728E+00 -1.93803265E-01 -1.92868600E+00
 -3.29666054E+00  1.76732026E+00  7.96560698E-01
Number of symbols in /Mol/                 I                0
Force Field                                I                0
Atom Types                                 C   N=           6
                                                            
            
Int Atom Types                             I   N=           6
           0           0           0           0           0           0
MM charges                                 R   N=           6
  0.00000000E+00  0.00000000E+00  0.00000000E+00  0.00000000E+00  0.00000000E+00
  0.00000000E+00
Integer atomic weights                     I   N=           6
          14          12          12           1           1           1
Real atomic weights                        R   N=           6
  1.40030740E+01  1.20000000E+01  1.20000000E+01  1.00782504E+00  1.00782504E+00
  1.00782504E+00
Atom fragment info                         I   N=           6
           0           0           0           0           0           0
Atom residue num                           I   N=           6
           0           0           0           0           0           0
Nuclear spins                              I   N=           6
           2           0           0           1           1           1
Nuclear ZEff                               R   N=           6
 -4.55000000E+00 -3.60000000E+00 -3.60000000E+00 -1.00000000E+00 -1.00000000E+00
 -1.00000000E+00
Nuclear ZNuc                               R   N=           6
  7.00000000E+00  6.00000000E+00  6.00000000E+00  1.00000000E+00  1.00000000E+00
  1.00000000E+00
Nuclear QMom                               R   N=           6
  2.04400000E+00  0.00000000E+00  0.00000000E+00  0.00000000E+00  0.00000000E+00
  0.00000000E+00
Nuclear GFac                               R   N=           6
  4.03761000E-01  0.00000000E+00  0.00000000E+00  2.79284600E+00  2.79284600E+00
  2.79284600E+00
MicOpt                                     I   N=           6
          -1          -1          -1          -1          -1          -1
Number of residues                         I                0
Number of secondary structures             I                0
Redundant internal dimensions              I   N=           4
          17           5           8           4
Redundant internal coordinate indices      I   N=          68
           1           3           0           0           2           3
           0           0           2           4           0           0
           2           5           0           0           2           6
           0           0           3           2           4           0
           3           2           5           0           3           2
           6           0           4           2           5           0
           4           2           6           0           5           2
           6           0           1           3           2         -41
           1           3           2         -42           3           2
           5           4           3           2           6           4
           3           2           6           5           4           2
           6           5
Redundant internal coordinates             R   N=          17
  2.19258398E+00  2.75959130E+00  2.06639669E+00  2.06639635E+00  2.06639647E+00
  1.92451499E+00  1.92451881E+00  1.92451540E+00  1.89654617E+00  1.89654838E+00
  1.89654936E+00  3.14159001E+00  3.14159817E+00  2.11118871E+00 -2.11118801E+00
  2.11119333E+00 -2.06080397E+00
ZRed-IntVec                                I   N=          17
           0           0           0           0           0           0
           0           0           0           0           0           0
           0           0           0           0           0
ZRed-FPVec                                 R   N=          17
  0.00000000E+00  0.00000000E+00  0.00000000E+00  0.00000000E+00  0.00000000E+00
  0.00000000E+00  0.00000000E+00  0.00000000E+00  0.00000000E+00  0.00000000E+00
  0.00000000E+00  0.00000000E+00  0.00000000E+00  0.00000000E+00  0.00000000E+00
  0.00000000E+00  0.00000000E+00
ZRed-Constraint1                           R   N=          17
  2.19258398E+00  2.75959130E+00  2.06639669E+00  2.06639635E+00  2.06639647E+00
  1.92451499E+00  1.92451881E+00  1.92451540E+00  1.89654617E+00  1.89654838E+00
  1.89654936E+00  3.14159001E+00  3.14159817E+00  2.11118871E+00 -2.11118801E+00
  2.11119333E+00 -2.06080397E+00
ZRed-Constraint2                           R   N=          17
  2.19246025E+00  2.76259062E+00  2.06753696E+00  2.06742993E+00  2.06752403E+00
  1.93400061E+00  1.93411807E+00  1.93400299E+00  1.88671737E+00  1.88668347E+00
  1.88656692E+00  3.14159265E+00  3.14159265E+00  2.12250995E+00 -2.12241690E+00
  2.12248655E+00 -2.03828185E+00
Number of contracted shells                I               21
Number of primitive shells                 I               48
Pure/Cartesian d shells                    I                1
Pure/Cartesian f shells                    I                0
Highest angular momentum                   I                2
Largest degree of contraction              I                6
Shell types                                I   N=          21
           0          -1          -1           2           0          -1
          -1           2           0          -1          -1           2
           0           0           1           0           0           1
           0           0           1
Number of primitives per shell             I   N=          21
           6           3           1           1           6           3
           1           1           6           3           1           1
           3           1           1           3           1           1
           3           1           1
Shell to atom map                          I   N=          21
           1           1           1           1           2           2
           2           2           3           3           3           3
           4           4           4           5           5           5
           6           6           6
Primitive exponents                        R   N=          48
  4.17351146E+03  6.27457911E+02  1.42902093E+02  4.02343293E+01  1.28202129E+01
  4.39043701E+00  1.16263619E+01  2.71627981E+00  7.72218397E-01  2.12031498E-01
  8.00000000E-01  3.04752488E+03  4.57369518E+02  1.03948685E+02  2.92101553E+01
  9.28666296E+00  3.16392696E+00  7.86827235E+00  1.88128854E+00  5.44249258E-01
  1.68714478E-01  8.00000000E-01  3.04752488E+03  4.57369518E+02  1.03948685E+02
  2.92101553E+01  9.28666296E+00  3.16392696E+00  7.86827235E+00  1.88128854E+00
  5.44249258E-01  1.68714478E-01  8.00000000E-01  1.87311370E+01  2.82539436E+00
  6.40121692E-01  1.61277759E-01  1.10000000E+00  1.87311370E+01  2.82539436E+00
  6.40121692E-01  1.61277759E-01  1.10000000E+00  1.87311370E+01  2.82539436E+00
  6.40121692E-01  1.61277759E-01  1.10000000E+00
Contraction coefficients                   R   N=          48
  1.83477216E-03  1.39946270E-02  6.85865518E-02  2.32240873E-01  4.69069948E-01
  3.60455199E-01 -1.14961182E-01 -1.69117479E-01  1.14585195E+00  1.00000000E+00
  1.00000000E+00  1.83473713E-03  1.40373228E-02  6.88426223E-02  2.32184443E-01
  4.67941348E-01  3.62311985E-01 -1.19332420E-01 -1.60854152E-01  1.14345644E+00
  1.00000000E+00  1.00000000E+00  1.83473713E-03  1.40373228E-02  6.88426223E-02
  2.32184443E-01  4.67941348E-01  3.62311985E-01 -1.19332420E-01 -1.60854152E-01
  1.14345644E+00  1.00000000E+00  1.00000000E+00  3.34946043E-02  2.34726953E-01
  8.13757326E-01  1.00000000E+00  1.00000000E+00  3.34946043E-02  2.34726953E-01
  8.13757326E-01  1.00000000E+00  1.00000000E+00  3.34946043E-02  2.34726953E-01
  8.13757326E-01  1.00000000E+00  1.00000000E+00
P(S=P) Contraction coefficients            R   N=          48
  0.00000000E+00  0.00000000E+00  0.00000000E+00  0.00000000E+00  0.00000000E+00
  0.00000000E+00  6.75797439E-02  3.23907296E-01  7.40895140E-01  1.00000000E+00
  0.00000000E+00  0.00000000E+00  0.00000000E+00  0.00000000E+00  0.00000000E+00
  0.00000000E+00  0.00000000E+00  6.89990666E-02  3.16423961E-01  7.44308291E-01
  1.00000000E+00  0.00000000E+00  0.00000000E+00  0.00000000E+00  0.00000000E+00
  0.00000000E+00  0.00000000E+00  0.00000000E+00  6.89990666E-02  3.16423961E-01
  7.44308291E-01  1.00000000E+00  0.00000000E+00  0.00000000E+00  0.00000000E+00
  0.00000000E+00  0.00000000E+00  0.00000000E+00  0.00000000E+00  0.00000000E+00
  0.00000000E+00  0.00000000E+00  0.00000000E+00  0.00000000E+00  0.00000000E+00
  0.00000000E+00  0.00000000E+00  0.00000000E+00
Coordinates of each shell                  R   N=          63
  2.37125999E+00 -1.26826470E-05 -4.67392802E-05  2.37125999E+00 -1.26826470E-05
 -4.67392802E-05  2.37125999E+00 -1.26826470E-05 -4.67392802E-05  2.37125999E+00
 -1.26826470E-05 -4.67392802E-05 -2.58091529E+00  4.22992005E-05  4.84685236E-05
 -2.58091529E+00  4.22992005E-05  4.84685236E-05 -2.58091529E+00  4.22992005E-05
  4.84685236E-05 -2.58091529E+00  4.22992005E-05  4.84685236E-05  1.78676012E-01
  1.62018892E-05 -3.80531003E-06  1.78676012E-01  1.62018892E-05 -3.80531003E-06
  1.78676012E-01  1.62018892E-05 -3.80531003E-06  1.78676012E-01  1.62018892E-05
 -3.80531003E-06 -3.29668505E+00 -1.57337384E+00  1.13231635E+00 -3.29668505E+00
 -1.57337384E+00  1.13231635E+00 -3.29668505E+00 -1.57337384E+00  1.13231635E+00
 -3.29673728E+00 -1.93803265E-01 -1.92868600E+00 -3.29673728E+00 -1.93803265E-01
 -1.92868600E+00 -3.29673728E+00 -1.93803265E-01 -1.92868600E+00 -3.29666054E+00
  1.76732026E+00  7.96560698E-01 -3.29666054E+00  1.76732026E+00  7.96560698E-01
 -3.29666054E+00  1.76732026E+00  7.96560698E-01
Num ILSW                                   I              100
ILSW                                       I   N=         100
           0           1           0           0           2           0
           0           0           0           0         402          -1
           5           0           0           0           2           0
           0           0           0           0           1           0
           1           1           0           0           0           0
           0           0      100000           0          -1           0
           0           0           0           0           0           0
           0           0           0           1           0           0
           0 -2000000000           1           0           0           0
           0           0           4          52           0           0
           0           0           5           0           0           0
           0           0           0           6           0           1
           0           0           0           0           0           0
           0           0           0           0           0           0
           0           0           0           0           0           0
           0           0           0           0           0           0
           0           0           0           0
Num RLSW                                   I               52
RLSW                                       R   N=          52
  8.00000000E-01  7.20000000E-01  1.00000000E+00  8.10000000E-01  2.00000000E-01
  0.00000000E+00  0.00000000E+00  1.00000000E+00  0.00000000E+00  0.00000000E+00
  0.00000000E+00  0.00000000E+00  1.00000000E+00  0.00000000E+00  0.00000000E+00
  0.00000000E+00  0.00000000E+00  1.00000000E+00  0.00000000E+00  0.00000000E+00
  0.00000000E+00  0.00000000E+00  1.00000000E+00  0.00000000E+00  0.00000000E+00
  0.00000000E+00  0.00000000E+00  1.00000000E+00  0.00000000E+00  0.00000000E+00
  0.00000000E+00  0.00000000E+00  1.00000000E+00  0.00000000E+00  0.00000000E+00
  0.00000000E+00  0.00000000E+00  0.00000000E+00  1.00000000E+00  1.00000000E+00
  0.00000000E+00  1.00000000E+00  0.00000000E+00  0.00000000E+00  0.00000000E+00
  0.00000000E+00  0.00000000E+00  0.00000000E+00  0.00000000E+00  0.00000000E+00
  0.00000000E+00  0.00000000E+00
MxBond                                     I                4
NBond                                      I   N=           6
           1           4           2           1           1           1
IBond                                      I   N=          24
           3           0           0           0           3           4
           5           6           1           2           0           0
           2           0           0           0           2           0
           0           0           2           0           0           0
RBond                                      R   N=          24
  3.00000000E+00  0.00000000E+00  0.00000000E+00  0.00000000E+00  1.00000000E+00
  1.00000000E+00  1.00000000E+00  1.00000000E+00  3.00000000E+00  1.00000000E+00
  0.00000000E+00  0.00000000E+00  1.00000000E+00  0.00000000E+00  0.00000000E+00
  0.00000000E+00  1.00000000E+00  0.00000000E+00  0.00000000E+00  0.00000000E+00
  1.00000000E+00  0.00000000E+00  0.00000000E+00  0.00000000E+00
Virial Ratio                               R      2.009749093016180E+00
SCF Energy                                 R     -1.327591466507724E+02
Total Energy                               R     -1.327591466507724E+02
RMS Force                                  R      1.168677129296431E-07
RMS Density                                R      2.625845234827960E-09
NImag                                      I                0
Job Status                                 I                1
Nuclear derivative order                   I                2
External E-field                           R   N=          35
  0.00000000E+00  0.00000000E+00  0.00000000E+00  0.00000000E+00  0.00000000E+00
  0.00000000E+00  0.00000000E+00  0.00000000E+00  0.00000000E+00  0.00000000E+00
  0.00000000E+00  0.00000000E+00  0.00000000E+00  0.00000000E+00  0.00000000E+00
  0.00000000E+00  0.00000000E+00  0.00000000E+00  0.00000000E+00  0.00000000E+00
  0.00000000E+00  0.00000000E+00  0.00000000E+00  0.00000000E+00  0.00000000E+00
  0.00000000E+00  0.00000000E+00  0.00000000E+00  0.00000000E+00  0.00000000E+00
  0.00000000E+00  0.00000000E+00  0.00000000E+00  0.00000000E+00  0.00000000E+00
IOpCl                                      I                0
IROHF                                      I                0
Alpha Orbital Energies                     R   N=          60
 -1.43329530E+01 -1.02407696E+01 -1.02314941E+01 -9.02430394E-01 -7.76986734E-01
 -5.16540013E-01 -4.64207385E-01 -4.64207064E-01 -3.58081365E-01 -3.26115517E-01
 -3.26115449E-01  3.68803310E-02  3.68805198E-02  8.39997925E-02  1.60331317E-01
  1.60331525E-01  1.84276370E-01  2.83782230E-01  5.25093695E-01  5.25093899E-01
  5.77430944E-01  6.18519199E-01  6.18519826E-01  6.80638601E-01  7.81978988E-01
  7.96266332E-01  7.96266429E-01  8.39148693E-01  8.39148958E-01  8.66518868E-01
  1.04568697E+00  1.31541370E+00  1.31541397E+00  1.37770235E+00  1.52070542E+00
  1.52070545E+00  1.58700731E+00  1.73759426E+00  1.73759517E+00  1.94280394E+00
  1.94280446E+00  1.99771987E+00  2.05249961E+00  2.05250000E+00  2.07896630E+00
  2.25680184E+00  2.25680265E+00  2.54005562E+00  2.65907973E+00  2.65908108E+00
  2.77929576E+00  2.94874220E+00  2.94874380E+00  3.04590462E+00  3.27607007E+00
  3.38580308E+00  3.38580390E+00  4.00039214E+00  4.19863241E+00  4.64333763E+00
Alpha MO coefficients                      R   N=        3600
  9.92782052E-01  3.45552355E-02 -2.25144166E-03  3.03579471E-08  4.44527616E-08
  6.33823158E-03 -1.07828699E-03  1.48138529E-08  2.11106426E-08 -7.00171113E-03
 -8.34544316E-03 -8.34544318E-03 -2.08796770E-08 -3.04524946E-08 -2.15302578E-11
  3.25588677E-05 -8.26371260E-05  2.43010445E-04 -1.93309884E-09 -4.62079753E-09
 -1.28859678E-03 -2.93037109E-04  1.24439450E-09  5.02828796E-09  5.09803276E-04
  4.74569883E-05  4.74571086E-05 -4.26730612E-09 -9.87529197E-09 -6.58925823E-11
  4.98691698E-05  1.84868097E-04 -7.10231690E-04  9.87358668E-09  1.39963520E-08
 -1.94124016E-03 -2.25048626E-03  2.77534778E-08  4.37585134E-08 -1.67394258E-03
  4.57322557E-05  4.57322676E-05  2.50139606E-08  3.86693917E-08 -1.48938288E-12
  3.56657158E-05  8.01574060E-05  1.11662869E-06  3.42047494E-06 -2.46131858E-06
  3.56656990E-05  8.01573083E-05  1.11702970E-06  4.21464332E-07  4.19249843E-06
  3.56660999E-05  8.01577037E-05  1.11608188E-06 -3.84205216E-06 -1.73160168E-06
 -2.72673666E-06  1.09198446E-04 -2.15585583E-04  2.92514340E-09  4.07949000E-09
  1.64309952E-03 -1.68371610E-04  8.24680018E-09  5.19070672E-09  1.03812250E-04
 -1.69971371E-05 -1.69971539E-05 -3.55901651E-09 -3.10473897E-09  1.42015267E-11
  9.92799875E-01  5.00319454E-02  4.13227960E-04 -7.90147177E-09 -6.69434968E-09
 -1.93324942E-02 -2.28662287E-03  2.98129733E-08  3.74573659E-08 -8.97328194E-03
 -8.95591696E-03 -8.95591662E-03  5.79335534E-10  1.79873695E-09 -7.30984726E-11
  1.72611888E-02  6.36311861E-04  2.78310002E-04 -2.35331584E-09 -4.67952153E-09
  5.28580557E-03 -4.59577254E-03  4.18525799E-08  8.49506063E-08 -1.00621776E-03
 -3.63365697E-04 -3.63365341E-04  7.31218967E-09  1.43009543E-08 -6.27988981E-12
 -1.55875745E-05  2.65726861E-03 -5.84932531E-06 -1.24153693E-04  8.93431857E-05
 -1.55892799E-05  2.65726232E-03 -5.85192672E-06 -1.52963174E-05 -1.52191654E-04
 -1.55880368E-05  2.65726305E-03 -5.84730058E-06  1.39448676E-04  6.28493370E-05
 -4.53444895E-04  4.57020703E-04  3.46516503E-04 -3.99137193E-09 -6.74235673E-09
 -1.15004074E-02  4.22326030E-03 -6.67311681E-08 -8.44608336E-08  1.70361524E-04
  3.35407599E-04  3.35407601E-04  5.39935739E-09  4.23750729E-09 -1.14776245E-12
 -1.76662302E-02 -1.31699352E-03 -4.86725549E-04  3.84466937E-09  8.81052717E-09
  1.03827920E-02  4.62720869E-03 -3.58463663E-08 -8.72859583E-08 -8.60163840E-04
 -1.52270255E-04 -1.52269649E-04  7.63178210E-09  1.50999434E-08  4.71293345E-10
  9.92462712E-01  4.97024877E-02 -2.29602215E-04 -3.77210289E-11  4.76717397E-09
 -5.34991990E-03  1.25518108E-02 -1.38257195E-07 -2.41553035E-07 -8.10858971E-03
 -1.02396683E-02 -1.02396683E-02 -2.97657628E-08 -4.79460637E-08  1.62010771E-11
 -2.64759204E-04  1.79821450E-04  6.12621728E-05  6.59110724E-05 -4.74324553E-05
 -2.64760036E-04  1.79819003E-04  6.12615880E-05  8.11962563E-06  8.07959917E-05
 -2.64760975E-04  1.79818107E-04  6.12616472E-05 -7.40327570E-05 -3.33669379E-05
 -1.77436907E-01  3.49073508E-01 -1.95629499E-01  2.54752559E-06  3.83208665E-06
  4.37933459E-01 -9.00712651E-02  1.26432478E-06  1.76599890E-06  9.22788762E-03
 -1.83350975E-02 -1.83350969E-02 -4.27083530E-07 -6.24812668E-07  1.20601409E-09
 -3.93901252E-02  7.89720060E-02  3.50974185E-02 -3.78455690E-07 -6.34553153E-07
 -3.48785421E-02 -3.54076642E-02  1.42741516E-07  6.52183098E-07  5.82723202E-03
 -2.89326199E-03 -2.89327172E-03 -1.12730672E-07 -1.91347693E-07 -2.88257720E-09
 -1.59794418E-01  2.97511052E-01  1.82905767E-01 -2.50240404E-06 -3.58331272E-06
  9.99286690E-02 -1.47350081E-01  1.69563336E-06  2.87641309E-06  1.41473722E-02
 -2.04421202E-02 -2.04421228E-02 -5.01471924E-07 -7.78244273E-07  7.21431669E-10
  2.04312529E-02  4.40812873E-04  7.71765543E-04  1.55159979E-03 -1.11656600E-03
  2.04312120E-02  4.40835824E-04  7.71825660E-04  1.91160809E-04  1.90198620E-03
  2.04312491E-02  4.40907819E-04  7.71737898E-04 -1.74277120E-03 -7.85468774E-04
  6.41275678E-02 -1.31790212E-01  5.74738273E-02 -8.50200771E-07 -1.12846743E-06
 -1.46089595E-01  1.65803131E-02 -2.55088483E-07 -3.37267733E-07 -2.37173394E-03
  6.25118513E-03  6.25118528E-03  1.57047298E-07  1.97539103E-07 -3.62059995E-10
 -1.89061896E-01  3.70244622E-01  4.53844168E-02 -5.05440516E-07 -6.80651276E-07
  3.48404819E-01  1.84027535E-02 -1.60171013E-07 -2.79437842E-07 -4.58693399E-03
 -1.05365194E-02 -1.05365512E-02 -4.38476163E-08 -1.05416690E-07  1.59483529E-08
 -3.96043698E-02  8.34735098E-02 -2.32560041E-01  2.54353113E-06  4.51301995E-06
  5.79888041E-02  8.39218768E-03 -1.24560745E-07 -1.31714734E-07  1.14860979E-02
 -2.12956544E-03 -2.12957239E-03 -1.11597051E-07 -3.04455576E-07  7.06624225E-10
  1.18159597E-01  2.80142924E-02  4.92369722E-03  9.01482018E-03 -6.48730750E-03
  1.18159485E-01  2.80142719E-02  4.92397861E-03  1.11061515E-03  1.10505979E-02
  1.18159563E-01  2.80142811E-02  4.92356078E-03 -1.01255622E-02 -4.56359949E-03
  6.27758610E-02 -1.29207024E-01 -2.61653405E-02  2.64147480E-07  6.46106924E-07
 -2.12100930E-01 -7.42408334E-03  7.56344020E-08  1.86197808E-07  9.28117143E-03
  4.51648592E-03  4.51648557E-03 -6.63945880E-08 -1.22884235E-07 -3.47686500E-10
  4.14788680E-02 -8.34528927E-02  3.99841367E-01 -2.86031649E-06 -6.25347440E-06
 -7.14178226E-02  1.64018565E-01 -1.11092165E-06 -2.58861625E-06  2.71211735E-02
 -1.01999863E-02 -1.02001132E-02 -4.15630551E-07 -8.69416494E-07 -1.06144449E-08
 -1.14998689E-01  2.48616423E-01 -2.69198572E-01  3.22073130E-06  5.52796772E-06
  2.56739872E-01 -2.39339953E-02  2.89825295E-07  6.34709562E-07 -4.71300458E-03
 -6.46264232E-03 -6.46264986E-03 -1.53925318E-08 -6.21029654E-08  4.45674069E-10
 -1.20172548E-01 -7.66868567E-02  4.20568137E-03 -5.93513490E-03  4.27092597E-03
 -1.20174075E-01 -7.66878015E-02  4.20543339E-03 -7.31258758E-04 -7.27558570E-03
 -1.20171983E-01 -7.66864861E-02  4.20578474E-03  6.66627278E-03  3.00440157E-03
 -3.15892926E-07  5.74165505E-07  2.33251342E-06  8.09679729E-02  4.68830081E-02
  1.73116662E-06  7.51849824E-07  3.47433509E-02  2.01174765E-02 -4.49419438E-07
 -4.36957197E-06  4.67214476E-06 -8.74279147E-03 -5.06234924E-03 -4.59505464E-06
 -1.24579619E-07  2.67660386E-07  6.34805219E-06  3.76009558E-01  2.17721609E-01
 -4.78443068E-08  2.71900568E-06  1.65306227E-01  9.57176515E-02 -2.51019178E-07
  1.07863678E-02 -1.07861469E-02 -3.33338377E-03 -1.93051047E-03  1.14972205E-02
  3.67505319E-07 -8.21656423E-07  4.27430841E-06  1.49365248E-01  8.64871740E-02
 -1.18760007E-06  1.09213428E-06  6.48598808E-02  3.75559503E-02 -2.14430082E-07
  8.07858053E-04 -8.07560180E-04 -7.77195831E-03 -4.50022713E-03  8.61151061E-04
 -1.03192583E-01 -7.87720559E-02 -2.45989644E-03  2.27324794E-03  7.25860777E-03
 -1.47362014E-01 -1.12488660E-01 -3.51305712E-03  6.04396520E-03 -4.04412691E-03
  2.50555856E-01  1.91261791E-01  5.97294991E-03 -5.63000211E-03 -1.65851200E-03
 -1.61663743E-07  3.68893519E-07  1.13493996E-06 -4.68832254E-02  8.09681941E-02
  3.43765699E-07  5.76821058E-07 -2.01176180E-02  3.47434775E-02 -2.04024474E-07
 -4.30287453E-06  4.47884662E-06  5.06237133E-03 -8.74280600E-03  5.25047734E-06
  3.04297864E-08 -7.69794648E-08  4.55898353E-06 -2.17721534E-01  3.76009532E-01
 -9.79357012E-09  1.98091646E-06 -9.57176918E-02  1.65306405E-01 -1.96912481E-07
  9.95680830E-03 -9.95661440E-03  1.93017192E-03 -3.33409112E-03 -1.24549929E-02
  3.60460525E-07 -8.03402501E-07  2.54666174E-06 -8.64874744E-02  1.49365457E-01
 -7.48360128E-07  1.11135844E-06 -3.75560198E-02  6.48599700E-02 -1.81939502E-07
  7.45573843E-04 -7.45346069E-04  4.50021360E-03 -7.77198708E-03 -9.32727499E-04
  2.29738161E-01  1.75370729E-01  5.47681483E-03  6.22119824E-03 -4.81830830E-04
 -2.04236346E-01 -1.55903953E-01 -4.86899855E-03 -5.08150248E-03 -4.25232899E-03
 -2.55008421E-02 -1.94661367E-02 -6.07816108E-04 -2.69571137E-03  7.42140775E-03
 -1.13261546E-01  2.46581957E-01  5.04155263E-01 -7.86010691E-06 -1.04942481E-05
  3.58560455E-01  2.98633986E-01 -4.73247710E-06 -6.21867375E-06 -4.55580166E-02
  5.63813856E-03  5.63814012E-03  8.84042842E-07  1.20985314E-06  1.17568749E-09
 -1.35011052E-02  2.45989242E-02  1.26047390E-01 -9.12622149E-07 -2.49962952E-06
  1.74423097E-01  1.21728972E-01 -8.01242046E-07 -2.35154810E-06 -1.25155375E-03
 -4.19246349E-03 -4.19248191E-03 -6.16223098E-08 -9.03000675E-08  1.41922347E-08
  6.58016303E-02 -1.35554377E-01 -2.54351613E-01  1.94123698E-06  4.28186499E-06
 -9.43987082E-02  1.28040172E-01 -2.07367890E-06 -2.80852270E-06  2.21316567E-02
  4.35829353E-03  4.35829208E-03 -3.10800754E-07 -4.23583884E-07  6.66514052E-10
 -2.15886201E-02 -2.38929721E-02  1.93322978E-03 -6.06336909E-04  4.36276171E-04
 -2.15886448E-02 -2.38929902E-02  1.93319286E-03 -7.47172540E-05 -7.43289617E-04
 -2.15883057E-02 -2.38928022E-02  1.93323768E-03  6.80999626E-04  3.06889479E-04
 -2.11179958E-07  5.27304559E-07  1.22834956E-05  3.09751050E-01  3.30580530E-01
 -1.51368581E-07  7.39880201E-06  1.78625913E-01  1.90637756E-01 -1.42354365E-06
 -2.05949856E-05  2.19862381E-05 -2.19237419E-02 -2.33980250E-02 -1.11247185E-05
 -1.65549239E-08 -4.72129282E-08 -2.43083078E-06 -9.66928451E-02 -1.03195068E-01
  1.33432314E-06 -7.15683422E-07 -5.20501384E-02 -5.55502096E-02  6.37317972E-07
 -6.63135054E-03  6.63067630E-03  1.18501535E-02  1.26473202E-02 -3.72152881E-03
 -5.96192280E-08  1.94994089E-07  7.31100139E-06  2.58522993E-01  2.75907667E-01
  7.97981523E-07  6.35900019E-06  1.54026583E-01  1.64384184E-01  1.13784019E-06
 -6.06075096E-04  6.05030290E-04  1.85147303E-02  1.97597887E-02 -3.40505784E-04
  1.49793115E-02  1.56247634E-02 -2.86915051E-05 -1.50933593E-03 -2.50629067E-03
  9.24264640E-02  9.64095267E-02 -1.76612557E-04 -1.62950998E-03  1.64476152E-03
 -1.07406159E-01 -1.12034765E-01  2.05297075E-04  2.02551091E-03 -3.26677851E-04
 -1.03559843E-07  1.74124102E-07 -1.01088167E-06  3.30580588E-01 -3.09751030E-01
  6.25195522E-07 -7.03320735E-07  1.90637857E-01 -1.78625923E-01  1.46225674E-07
  1.08070316E-05 -1.10256949E-05 -2.33980261E-02  2.19237397E-02 -2.42452069E-05
 -1.98496576E-08 -2.60040022E-10  9.47919542E-07 -1.03195297E-01  9.66931014E-02
  4.99329797E-07  6.09547162E-07 -5.55505047E-02  5.20503628E-02 -2.29998305E-07
  3.22244772E-03 -3.22224902E-03  1.26470587E-02 -1.18504564E-02 -7.65714070E-03
 -3.34877170E-09  4.50087168E-08 -1.97692457E-06  2.75907539E-01 -2.58522932E-01
 -1.78227284E-07 -8.92388931E-07  1.64384073E-01 -1.54026391E-01 -1.57460500E-07
  2.93920957E-04 -2.93699471E-04  1.97597858E-02 -1.85147592E-02 -6.99513885E-04
  1.15373602E-01  1.20345435E-01 -2.20512717E-04  1.71416164E-03 -7.67102292E-04
 -7.06594112E-02 -7.37043941E-02  1.34990115E-04 -2.43692248E-03 -8.87270678E-04
 -4.47140536E-02 -4.66410329E-02  8.55055681E-05 -4.65460779E-04  2.76773382E-03
  9.54068703E-08 -3.04339176E-07 -8.02259026E-06 -1.29483625E-02 -4.27480312E-01
 -5.68768288E-07 -9.57898624E-06 -1.53927535E-02 -5.08177101E-01 -2.43471166E-07
 -4.11597785E-04  4.11801724E-04 -1.86615049E-04 -6.16126866E-03  1.31739591E-04
  3.90680481E-07 -6.52648605E-07  1.02597604E-06  2.30519552E-03  7.61120339E-02
 -4.59849152E-06  7.87654212E-06  1.20640320E-02  3.98308920E-01  1.50888648E-06
 -1.19270870E-02  1.19256803E-02  1.25012547E-03  4.12742062E-02  3.81455404E-03
 -3.31643481E-07  4.27389785E-07  7.69691590E-06  1.29221755E-02  4.26621491E-01
  3.44497688E-06  9.05300633E-06  1.48600108E-02  4.90582802E-01 -1.45351053E-06
 -3.23579933E-03  3.23714054E-03 -1.18120562E-03 -3.89963612E-02  1.03550998E-03
 -8.28190565E-02 -3.74687501E-01  4.30624147E-03  1.59919385E-04  8.59641107E-04
  1.47726432E-01  6.68342247E-01 -7.68113604E-03  1.67817940E-07  6.67582680E-04
 -6.49073046E-02 -2.93650773E-01  3.37493763E-03 -8.65113056E-05  9.02000991E-04
 -2.29491175E-07  7.07316256E-07  4.19546933E-06  4.27480419E-01 -1.29480590E-02
  1.66797417E-06  4.88605962E-06  5.08177356E-01 -1.53922968E-02  2.27611398E-07
  1.13864592E-04 -1.14013139E-04  6.16131731E-03 -1.86624658E-04  4.75159209E-04
 -9.18454236E-07  1.61807179E-06  1.03032009E-06 -7.61117821E-02  2.30551137E-03
  1.12272952E-05 -1.99367771E-06 -3.98308201E-01  1.20646494E-02 -7.42875334E-07
  3.30443111E-03 -3.30385934E-03 -4.12735962E-02  1.25021478E-03  1.37729776E-02
  6.40211796E-07 -5.81122588E-07 -3.80805252E-06 -4.26621943E-01  1.29221712E-02
 -8.70487014E-06 -4.46894805E-06 -4.90583459E-01  1.48593416E-02  1.03655811E-06
  8.95445061E-04 -8.96329571E-04  3.89965191E-02 -1.18116324E-03  3.73567295E-03
 -1.22764215E-01 -5.55411242E-01  6.38330135E-03 -7.59816558E-04 -1.11028655E-04
 -1.03411971E-02 -4.67893550E-02  5.37763061E-04 -9.52004628E-04  4.89354522E-05
  1.33105244E-01  6.02188468E-01 -6.92091431E-03 -7.17381081E-04  1.35670620E-04
 -3.11313102E-02  3.71964036E-02 -8.20626857E-02 -6.82735841E-07  1.21518770E-06
  7.14072903E-01 -3.29574813E-01  2.38213638E-06  5.82090491E-06  3.05535155E-03