acetonitrile                                                            
Freq      RB3LYP                                                      6-31G(d,p)          
Number of atoms                            I                6
Info1-9                                    I   N=           9
          18          15           0           0           0         100
           6          18        -502
Full Title                                 C   N=           1
acetonitrile
Route                                      C   N=           3
#P b3lyp 6-31G(d,p) freq nosymm     
Charge                                     I                0
Multiplicity                               I                1
Number of electrons                        I               22
Number of alpha electrons                  I               11
Number of beta electrons                   I               11
Number of basis functions                  I               60
Number of independent functions            I               60
Number of point charges in /Mol/           I                0
Number of translation vectors              I                0
Atomic numbers                             I   N=           6
           7           6           6           1           1           1
Nuclear charges                            R   N=           6
  7.00000000E+00  6.00000000E+00  6.00000000E+00  1.00000000E+00  1.00000000E+00
  1.00000000E+00
Current cartesian coordinates              R   N=          18
  2.38256670E+00  0.00000000E+00  0.00000000E+00 -2.57248417E+00  0.00000000E+00
  0.00000000E+00  1.90106448E-01  0.00000000E+00  0.00000000E+00 -3.30702072E+00
 -1.56866166E+00  1.12892239E+00 -3.30720969E+00 -1.93130010E-01 -1.92279633E+00
 -3.30702072E+00  1.76198064E+00  7.94062918E-01
Number of symbols in /Mol/                 I                0
Force Field                                I                0
Atom Types                                 C   N=           6
                                                            
            
Int Atom Types                             I   N=           6
           0           0           0           0           0           0
MM charges                                 R   N=           6
  0.00000000E+00  0.00000000E+00  0.00000000E+00  0.00000000E+00  0.00000000E+00
  0.00000000E+00
Integer atomic weights                     I   N=           6
          14          12          12           1           1           1
Real atomic weights                        R   N=           6
  1.40030740E+01  1.20000000E+01  1.20000000E+01  1.00782504E+00  1.00782504E+00
  1.00782504E+00
Atom fragment info                         I   N=           6
           0           0           0           0           0           0
Atom residue num                           I   N=           6
           0           0           0           0           0           0
Nuclear spins                              I   N=           6
           2           0           0           1           1           1
Nuclear ZEff                               R   N=           6
 -4.55000000E+00 -3.60000000E+00 -3.60000000E+00 -1.00000000E+00 -1.00000000E+00
 -1.00000000E+00
Nuclear ZNuc                               R   N=           6
  7.00000000E+00  6.00000000E+00  6.00000000E+00  1.00000000E+00  1.00000000E+00
  1.00000000E+00
Nuclear QMom                               R   N=           6
  2.04400000E+00  0.00000000E+00  0.00000000E+00  0.00000000E+00  0.00000000E+00
  0.00000000E+00
Nuclear GFac                               R   N=           6
  4.03761000E-01  0.00000000E+00  0.00000000E+00  2.79284600E+00  2.79284600E+00
  2.79284600E+00
MicOpt                                     I   N=           6
          -1          -1          -1          -1          -1          -1
Number of residues                         I                0
Number of secondary structures             I                0
Number of contracted shells                I               21
Number of primitive shells                 I               48
Pure/Cartesian d shells                    I                1
Pure/Cartesian f shells                    I                0
Highest angular momentum                   I                2
Largest degree of contraction              I                6
Shell types                                I   N=          21
           0          -1          -1           2           0          -1
          -1           2           0          -1          -1           2
           0           0           1           0           0           1
           0           0           1
Number of primitives per shell             I   N=          21
           6           3           1           1           6           3
           1           1           6           3           1           1
           3           1           1           3           1           1
           3           1           1
Shell to atom map                          I   N=          21
           1           1           1           1           2           2
           2           2           3           3           3           3
           4           4           4           5           5           5
           6           6           6
Primitive exponents                        R   N=          48
  4.17351146E+03  6.27457911E+02  1.42902093E+02  4.02343293E+01  1.28202129E+01
  4.39043701E+00  1.16263619E+01  2.71627981E+00  7.72218397E-01  2.12031498E-01
  8.00000000E-01  3.04752488E+03  4.57369518E+02  1.03948685E+02  2.92101553E+01
  9.28666296E+00  3.16392696E+00  7.86827235E+00  1.88128854E+00  5.44249258E-01
  1.68714478E-01  8.00000000E-01  3.04752488E+03  4.57369518E+02  1.03948685E+02
  2.92101553E+01  9.28666296E+00  3.16392696E+00  7.86827235E+00  1.88128854E+00
  5.44249258E-01  1.68714478E-01  8.00000000E-01  1.87311370E+01  2.82539436E+00
  6.40121692E-01  1.61277759E-01  1.10000000E+00  1.87311370E+01  2.82539436E+00
  6.40121692E-01  1.61277759E-01  1.10000000E+00  1.87311370E+01  2.82539436E+00
  6.40121692E-01  1.61277759E-01  1.10000000E+00
Contraction coefficients                   R   N=          48
  1.83477216E-03  1.39946270E-02  6.85865518E-02  2.32240873E-01  4.69069948E-01
  3.60455199E-01 -1.14961182E-01 -1.69117479E-01  1.14585195E+00  1.00000000E+00
  1.00000000E+00  1.83473713E-03  1.40373228E-02  6.88426223E-02  2.32184443E-01
  4.67941348E-01  3.62311985E-01 -1.19332420E-01 -1.60854152E-01  1.14345644E+00
  1.00000000E+00  1.00000000E+00  1.83473713E-03  1.40373228E-02  6.88426223E-02
  2.32184443E-01  4.67941348E-01  3.62311985E-01 -1.19332420E-01 -1.60854152E-01
  1.14345644E+00  1.00000000E+00  1.00000000E+00  3.34946043E-02  2.34726953E-01
  8.13757326E-01  1.00000000E+00  1.00000000E+00  3.34946043E-02  2.34726953E-01
  8.13757326E-01  1.00000000E+00  1.00000000E+00  3.34946043E-02  2.34726953E-01
  8.13757326E-01  1.00000000E+00  1.00000000E+00
P(S=P) Contraction coefficients            R   N=          48
  0.00000000E+00  0.00000000E+00  0.00000000E+00  0.00000000E+00  0.00000000E+00
  0.00000000E+00  6.75797439E-02  3.23907296E-01  7.40895140E-01  1.00000000E+00
  0.00000000E+00  0.00000000E+00  0.00000000E+00  0.00000000E+00  0.00000000E+00
  0.00000000E+00  0.00000000E+00  6.89990666E-02  3.16423961E-01  7.44308291E-01
  1.00000000E+00  0.00000000E+00  0.00000000E+00  0.00000000E+00  0.00000000E+00
  0.00000000E+00  0.00000000E+00  0.00000000E+00  6.89990666E-02  3.16423961E-01
  7.44308291E-01  1.00000000E+00  0.00000000E+00  0.00000000E+00  0.00000000E+00
  0.00000000E+00  0.00000000E+00  0.00000000E+00  0.00000000E+00  0.00000000E+00
  0.00000000E+00  0.00000000E+00  0.00000000E+00  0.00000000E+00  0.00000000E+00
  0.00000000E+00  0.00000000E+00  0.00000000E+00
Coordinates of each shell                  R   N=          63
  2.38256670E+00  0.00000000E+00  0.00000000E+00  2.38256670E+00  0.00000000E+00
  0.00000000E+00  2.38256670E+00  0.00000000E+00  0.00000000E+00  2.38256670E+00
  0.00000000E+00  0.00000000E+00 -2.57248417E+00  0.00000000E+00  0.00000000E+00
 -2.57248417E+00  0.00000000E+00  0.00000000E+00 -2.57248417E+00  0.00000000E+00
  0.00000000E+00 -2.57248417E+00  0.00000000E+00  0.00000000E+00  1.90106448E-01
  0.00000000E+00  0.00000000E+00  1.90106448E-01  0.00000000E+00  0.00000000E+00
  1.90106448E-01  0.00000000E+00  0.00000000E+00  1.90106448E-01  0.00000000E+00
  0.00000000E+00 -3.30702072E+00 -1.56866166E+00  1.12892239E+00 -3.30702072E+00
 -1.56866166E+00  1.12892239E+00 -3.30702072E+00 -1.56866166E+00  1.12892239E+00
 -3.30720969E+00 -1.93130010E-01 -1.92279633E+00 -3.30720969E+00 -1.93130010E-01
 -1.92279633E+00 -3.30720969E+00 -1.93130010E-01 -1.92279633E+00 -3.30702072E+00
  1.76198064E+00  7.94062918E-01 -3.30702072E+00  1.76198064E+00  7.94062918E-01
 -3.30702072E+00  1.76198064E+00  7.94062918E-01
Num ILSW                                   I              100
ILSW                                       I   N=         100
           0           1           0           0           2           0
           0           0           0           0         402          -1
           5           0           0           0           2           0
           0           0           0           0           1           0
           1           1           0           0           0           0
           0           0      100000           0          -1           0
           0           0           0           0           0           0
           0           0           0           1           0           0
           0 -2000000000           1           0           0           0
           0           0           4          52           0           0
           0           0           5           0           0           0
           0           0           0           6           0           1
           0           0           0           0           0           0
           0           0           0           0           0           0
           0           0           0           0           0           0
           0           0           0           0           0           0
           0           0           0           0
Num RLSW                                   I               52
RLSW                                       R   N=          52
  8.00000000E-01  7.20000000E-01  1.00000000E+00  8.10000000E-01  2.00000000E-01
  0.00000000E+00  0.00000000E+00  1.00000000E+00  0.00000000E+00  0.00000000E+00
  0.00000000E+00  0.00000000E+00  1.00000000E+00  0.00000000E+00  0.00000000E+00
  0.00000000E+00  0.00000000E+00  1.00000000E+00  0.00000000E+00  0.00000000E+00
  0.00000000E+00  0.00000000E+00  1.00000000E+00  0.00000000E+00  0.00000000E+00
  0.00000000E+00  0.00000000E+00  1.00000000E+00  0.00000000E+00  0.00000000E+00
  0.00000000E+00  0.00000000E+00  1.00000000E+00  0.00000000E+00  0.00000000E+00
  0.00000000E+00  0.00000000E+00  0.00000000E+00  1.00000000E+00  1.00000000E+00
  0.00000000E+00  1.00000000E+00  0.00000000E+00  0.00000000E+00  0.00000000E+00
  0.00000000E+00  0.00000000E+00  0.00000000E+00  0.00000000E+00  0.00000000E+00
  0.00000000E+00  0.00000000E+00
MxBond                                     I                4
NBond                                      I   N=           6
           1           4           2           1           1           1
IBond                                      I   N=          24
           3           0           0           0           3           4
           5           6           1           2           0           0
           2           0           0           0           2           0
           0           0           2           0           0           0
RBond                                      R   N=          24
  3.00000000E+00  0.00000000E+00  0.00000000E+00  0.00000000E+00  1.00000000E+00
  1.00000000E+00  1.00000000E+00  1.00000000E+00  3.00000000E+00  1.00000000E+00
  0.00000000E+00  0.00000000E+00  1.00000000E+00  0.00000000E+00  0.00000000E+00
  0.00000000E+00  1.00000000E+00  0.00000000E+00  0.00000000E+00  0.00000000E+00
  1.00000000E+00  0.00000000E+00  0.00000000E+00  0.00000000E+00
Virial Ratio                               R      2.009806986193265E+00
SCF Energy                                 R     -1.327591032386642E+02
Total Energy                               R     -1.327591032386642E+02
RMS Force                                  R      8.944416278847369E-04
RMS Density                                R      2.636983257391558E-09
NImag                                      I                0
Job Status                                 I                1
Nuclear derivative order                   I                2
External E-field                           R   N=          35
  0.00000000E+00  0.00000000E+00  0.00000000E+00  0.00000000E+00  0.00000000E+00
  0.00000000E+00  0.00000000E+00  0.00000000E+00  0.00000000E+00  0.00000000E+00
  0.00000000E+00  0.00000000E+00  0.00000000E+00  0.00000000E+00  0.00000000E+00
  0.00000000E+00  0.00000000E+00  0.00000000E+00  0.00000000E+00  0.00000000E+00
  0.00000000E+00  0.00000000E+00  0.00000000E+00  0.00000000E+00  0.00000000E+00
  0.00000000E+00  0.00000000E+00  0.00000000E+00  0.00000000E+00  0.00000000E+00
  0.00000000E+00  0.00000000E+00  0.00000000E+00  0.00000000E+00  0.00000000E+00
IOpCl                                      I                0
IROHF                                      I                0
Alpha Orbital Energies                     R   N=          60
 -1.43333970E+01 -1.02409978E+01 -1.02320506E+01 -9.02691607E-01 -7.76349345E-01
 -5.18168195E-01 -4.62943575E-01 -4.62930034E-01 -3.58465238E-01 -3.26459366E-01
 -3.26457040E-01  3.61408501E-02  3.61431109E-02  8.40230519E-02  1.60868749E-01
  1.60881577E-01  1.84286261E-01  2.83355139E-01  5.24540654E-01  5.24555617E-01
  5.77595396E-01  6.20105522E-01  6.20122217E-01  6.80635119E-01  7.80746387E-01
  7.95499355E-01  7.95507746E-01  8.39177049E-01  8.39189258E-01  8.67471449E-01
  1.04413222E+00  1.31549199E+00  1.31550816E+00  1.37611818E+00  1.52033661E+00
  1.52033743E+00  1.58859931E+00  1.73350302E+00  1.73352941E+00  1.94328949E+00
  1.94330276E+00  2.00039477E+00  2.05578946E+00  2.05584758E+00  2.07289689E+00
  2.25341965E+00  2.25344384E+00  2.55042478E+00  2.65440054E+00  2.65444342E+00
  2.78152571E+00  2.94530322E+00  2.94535089E+00  3.04543278E+00  3.27044823E+00
  3.38919107E+00  3.38927984E+00  3.99839380E+00  4.19655771E+00  4.64248255E+00
Alpha MO coefficients                      R   N=        3600
  9.92782165E-01  3.45549865E-02 -2.25179666E-03  5.03558368E-10  4.23423053E-09
  6.33563610E-03 -1.07711962E-03 -2.23856382E-09 -4.98522804E-10 -7.00178103E-03
 -8.34523515E-03 -8.34523575E-03  2.99676587E-10  8.98059596E-11  1.00697114E-10
  3.25121645E-05 -8.39648591E-05  2.40504592E-04  7.32535938E-10 -3.15677154E-09
 -1.28385518E-03 -2.90564442E-04 -1.72840170E-08  3.26765129E-09  5.08484379E-04
  4.80285077E-05  4.80306924E-05  1.76269746E-09  3.34612238E-09  1.91685317E-09
  5.00332488E-05  1.84405994E-04 -7.11689285E-04 -1.37822353E-10  2.14374353E-10
 -1.94300424E-03 -2.24718950E-03  5.12069743E-09 -2.87821548E-09 -1.67153861E-03
  4.59004715E-05  4.59006580E-05 -4.71217391E-10  1.67707760E-10 -3.64661221E-11
  3.55692625E-05  7.98819763E-05  2.19282916E-06  2.69295340E-06 -1.93656965E-06
  3.55673379E-05  7.98957964E-05  2.20703208E-06  3.31382960E-07  3.28406022E-06
  3.55727991E-05  7.98961088E-05  2.19376773E-06 -3.02380559E-06 -1.36307415E-06
 -1.13430906E-06  1.16609138E-04 -2.18178804E-04  5.77982564E-09 -8.10118820E-09
  1.55785561E-03 -1.46415351E-04 -3.81677894E-08  4.90761624E-08  1.09362022E-04
 -1.36874579E-05 -1.36872894E-05  4.30746402E-09 -5.14411651E-09 -3.49221815E-10
  9.92791264E-01  4.99994012E-02  4.00631362E-04  6.82489803E-08 -2.45854973E-08
 -1.91764321E-02 -2.16583822E-03 -3.70045599E-07  7.22181456E-08 -8.96323057E-03
 -8.96212460E-03 -8.96208247E-03  2.52059261E-09  5.39386976E-08 -2.99907946E-08
  1.76838767E-02  6.62594240E-04  2.78655880E-04  1.02963865E-09  1.57659905E-08
  5.21645649E-03 -4.47828358E-03  9.26341809E-08 -1.12226686E-07 -1.01790264E-03
 -3.68189263E-04 -3.68184573E-04 -1.16151908E-08  1.18456704E-08  4.74444375E-09
 -1.61299359E-05  2.65362186E-03 -5.42867400E-06 -1.22848512E-04  8.84241909E-05
 -1.61697150E-05  2.65398896E-03 -5.36790411E-06 -1.51230372E-05 -1.50572500E-04
 -1.60578768E-05  2.65390515E-03 -5.39642231E-06  1.37984038E-04  6.21957372E-05
 -4.53694506E-04  4.57721093E-04  3.43780984E-04 -8.21488650E-10 -1.48389237E-09
 -1.14921043E-02  4.21996214E-03  6.31100728E-09  2.50345061E-09  1.73089943E-04
  3.34786620E-04  3.34786652E-04 -1.18156606E-09  7.73160140E-10 -9.87575025E-12
 -1.80882811E-02 -1.33839089E-03 -4.82719323E-04 -3.25876270E-09  1.06206891E-09
  1.03795056E-02  4.62149950E-03  2.93235958E-08 -3.13244010E-08 -8.57615012E-04
 -1.47037189E-04 -1.47022415E-04 -4.90173296E-09 -1.28056367E-08 -1.03023822E-09
  9.92456421E-01  4.96884647E-02 -2.28454693E-04  8.80801503E-10  2.33300455E-08
 -5.33133215E-03  1.25358778E-02 -1.39426927E-08 -9.61838709E-09 -8.11256096E-03
 -1.02362733E-02 -1.02362722E-02  2.76846289E-10 -5.76234577E-09 -1.80093553E-10
 -2.66912856E-04  1.73553020E-04  5.36225940E-05  6.61569455E-05 -4.76150306E-05
 -2.66905366E-04  1.73489187E-04  5.35543299E-05  8.14425174E-06  8.11366480E-05
 -2.66918079E-04  1.73516296E-04  5.36220465E-05 -7.43132677E-05 -3.34879054E-05
 -1.77648421E-01  3.49511622E-01 -1.95850849E-01  2.76754537E-08  1.34609259E-07
  4.38460210E-01 -9.01638325E-02  1.75648143E-08 -6.00453034E-08  9.22624884E-03
 -1.83602061E-02 -1.83601716E-02 -5.03387125E-09 -3.70768352E-08 -1.37400699E-08
 -3.88288837E-02  7.79843880E-02  3.46556305E-02  7.54852408E-07 -1.42306375E-07
 -3.57564292E-02 -3.56246037E-02  5.28076996E-07  2.40646206E-07  5.84125531E-03
 -2.87619018E-03 -2.87643732E-03  1.43598124E-09  7.92207173E-08 -1.43403502E-07
 -1.59643680E-01  2.97319979E-01  1.83689015E-01  8.67011877E-08  4.40791999E-07
  9.94772739E-02 -1.47417781E-01  2.28572662E-09  3.83517661E-07  1.41495426E-02
 -2.04423414E-02 -2.04423789E-02 -2.51701066E-09  4.36252611E-09 -6.01622803E-08
  2.00731428E-02  3.99341969E-04  7.99510729E-04  1.51823565E-03 -1.09264199E-03
  2.00741532E-02  3.98983470E-04  8.00002982E-04  1.86984230E-04  1.86104740E-03
  2.00736183E-02  3.99128872E-04  7.99492378E-04 -1.70537689E-03 -7.68623845E-04
  6.34548118E-02 -1.30517273E-01  5.67800220E-02  1.57079893E-07  1.35040987E-07
 -1.44254740E-01  1.62233735E-02  2.40490069E-07 -1.69110051E-07 -2.37045170E-03
  6.17282814E-03  6.17282738E-03 -5.18713551E-08 -3.01724456E-09  8.27893704E-09
 -1.89277110E-01  3.70824282E-01  4.34833125E-02  6.44133437E-06 -5.17158714E-06
  3.48552162E-01  1.73365368E-02  3.65879008E-06 -9.99789130E-08 -4.45895965E-03
 -1.05789162E-02 -1.05789086E-02 -3.02629422E-07  1.04766537E-06 -7.78435890E-07
 -3.97925419E-02  8.39027260E-02 -2.31194638E-01  8.21992929E-07  2.64308157E-07
  5.84696200E-02  7.62271106E-03 -3.83057690E-07  4.98679704E-07  1.15280486E-02
 -2.17063825E-03 -2.17077486E-03 -1.03349574E-07 -1.30733500E-07 -8.40723890E-08
  1.18373307E-01  2.81298085E-02  4.95184646E-03  8.99893403E-03 -6.47637139E-03
  1.18385973E-01  2.81309064E-02  4.95284539E-03  1.10839577E-03  1.10316815E-02
  1.18377633E-01  2.81292171E-02  4.95178819E-03 -1.01081690E-02 -4.55585586E-03
  6.27160220E-02 -1.29022802E-01 -2.52826247E-02 -3.17441182E-06  9.24401002E-06
 -2.12497966E-01 -6.75936076E-03 -1.57812927E-06  3.25836310E-06  9.16108934E-03
  4.55945661E-03  4.55945465E-03  4.39661266E-07 -1.12794279E-06  9.53598692E-09
  4.04558675E-02 -8.13602286E-02  3.99934313E-01 -2.62487546E-05  7.83220239E-05
 -6.77953353E-02  1.64418276E-01 -1.09438202E-05  2.79749257E-05  2.66990126E-02
 -1.01005579E-02 -1.01062308E-02  9.40655468E-07 -3.05556094E-06 -8.47386997E-07
 -1.14802333E-01  2.48428411E-01 -2.69866959E-01 -7.39251200E-06  2.07605953E-05
  2.55457284E-01 -2.23626115E-02 -1.95781709E-06  8.66565965E-06 -4.43759603E-03
 -6.42342644E-03 -6.42376388E-03  6.20118659E-07 -1.75838266E-06 -1.22360203E-07
 -1.20237909E-01 -7.61237854E-02  4.05597244E-03 -5.95437147E-03  4.28619545E-03
 -1.20337814E-01 -7.61868935E-02  4.05300134E-03 -7.34465549E-04 -7.30278232E-03
 -1.20267794E-01 -7.61430305E-02  4.05548858E-03  6.68877810E-03  3.01633237E-03
 -1.27227630E-05  2.63919971E-05  1.36912653E-05 -5.69198219E-02  7.53895572E-02
  4.71516152E-05  5.17309194E-06 -2.45715633E-02  3.25445440E-02 -2.41951377E-06
 -4.00631566E-06  2.57036776E-06  6.12850297E-03 -8.11711141E-03  5.26579351E-06
 -9.04316725E-06  1.82869680E-05 -6.32796433E-05 -2.61755476E-01  3.46708312E-01
  2.23016578E-05 -3.21876946E-05 -1.15449749E-01  1.52914977E-01 -5.77970491E-06
  8.50743997E-03 -8.50248938E-03  2.56960206E-03 -3.40574045E-03 -1.36519999E-02
  2.22544862E-05 -4.91872982E-05  4.37148356E-05 -1.04301142E-01  1.38145725E-01
 -5.19127422E-05  3.63603099E-06 -4.52879140E-02  5.99836175E-02  1.11258717E-06
  6.23005303E-04 -6.20634507E-04  5.33187419E-03 -7.06203654E-03 -9.98502620E-04
  2.40200788E-01  1.84246569E-01  5.76675014E-03  5.83534156E-03 -1.29711644E-03
 -1.84486229E-01 -1.41507341E-01 -4.43180919E-03 -5.80461626E-03 -3.65572077E-03
 -5.56440837E-02 -4.26815618E-02 -1.33732727E-03 -2.03127366E-03  7.60320557E-03
 -5.36514977E-06  1.14162395E-05  5.78301913E-06  7.54025232E-02  5.69265103E-02
  1.69850383E-05  2.94897652E-06  3.25508616E-02  2.45747308E-02 -9.11243604E-07
 -4.82135513E-06  4.30132721E-06 -8.11820088E-03 -6.12897483E-03 -3.77957392E-06
  3.86501745E-07 -2.19054771E-06 -1.86442449E-05  3.46700956E-01  2.61760732E-01
  5.06836740E-06 -8.05291237E-06  1.52917154E-01  1.15450118E-01 -2.94622633E-06
  1.18269008E-02 -1.18231084E-02 -3.40280415E-03 -2.57077393E-03  9.82247151E-03
  9.71603406E-06 -2.11941715E-05  1.92220229E-05  1.38161361E-01  1.04307605E-01
 -2.49760931E-05  6.33246865E-06  5.99929206E-02  4.52930474E-02  2.01440934E-07
  8.65277738E-04 -8.64002510E-04 -7.06182065E-03 -5.33147758E-03  7.18480688E-04
 -7.43709774E-02 -5.70498114E-02 -1.78635700E-03  3.06336522E-03  7.16809978E-03
 -1.70792103E-01 -1.31011503E-01 -4.10227619E-03  5.42535960E-03 -4.46914726E-03
  2.45197651E-01  1.88090212E-01  5.88741457E-03 -5.83649754E-03 -6.96099290E-04
 -1.13364911E-01  2.46836104E-01  5.04230924E-01  1.93447237E-06 -1.62145981E-05
  3.58995233E-01  2.98492935E-01  1.05414070E-06 -8.76838554E-06 -4.55762211E-02
  5.63871282E-03  5.63875459E-03 -1.43263694E-07  1.28793321E-06 -9.07681281E-09
 -1.38009003E-02  2.52190269E-02  1.25268544E-01  6.46634367E-07 -5.62707528E-06
  1.74828048E-01  1.21228235E-01  1.07287731E-06 -4.12938744E-06 -1.35790982E-03
 -4.14857470E-03 -4.14868482E-03  1.73024544E-07 -9.43200828E-07  1.58916293E-07
  6.60404849E-02 -1.36093958E-01 -2.53805714E-01  1.96703239E-06 -1.75890657E-05
 -9.47755565E-02  1.27909440E-01  1.09293605E-06 -9.58200239E-06  2.21590460E-02
  4.38696468E-03  4.38695375E-03  8.28744173E-08 -6.13234789E-07  3.04577259E-08
 -2.15316140E-02 -2.36232241E-02  1.85058919E-03 -6.10062760E-04  4.38893640E-04
 -2.15329532E-02 -2.36234153E-02  1.85035594E-03 -7.51930986E-05 -7.47865754E-04
 -2.15298795E-02 -2.36220418E-02  1.85070947E-03  6.85154495E-04  3.08722774E-04
 -2.17102825E-06  4.82737331E-06  1.68920605E-05 -1.84652987E-01  4.13423909E-01
  4.90737610E-06  1.09074507E-05 -1.06475864E-01  2.38392106E-01 -1.33424750E-06
 -1.70265484E-05  1.76901001E-05  1.30743631E-02 -2.92725757E-02  1.75591482E-05
  9.68460474E-07 -1.18512146E-06  9.83212210E-06  5.78399062E-02 -1.29507245E-01
 -3.13786700E-06  1.01920850E-05  3.10121948E-02 -6.94316969E-02  1.50599143E-06
 -5.51076040E-03  5.50919734E-03 -7.13078503E-03  1.59666150E-02  5.58602956E-03
 -1.34743576E-06  3.44175332E-06 -1.66764005E-05 -1.54150088E-01  3.45130846E-01
  9.45081378E-06  3.28128113E-06 -9.16554213E-02  2.05207626E-01  4.72451485E-07
 -4.95857872E-04  4.95942002E-04 -1.10400206E-02  2.47178118E-02  5.02632281E-04
 -1.00899565E-01 -1.05574008E-01  1.14437201E-04 -2.15307975E-03 -3.10453007E-04
  1.01285555E-01  1.05977321E-01 -1.13837285E-04  1.64180551E-03  1.41409248E-03
 -4.00200028E-04 -4.20967566E-04  4.29799757E-07  1.23907554E-03 -2.73447113E-03
 -7.47837844E-07  1.55457443E-06  5.89138601E-06  4.13423552E-01  1.84650871E-01
  2.71953891E-06  3.51540811E-06  2.38392815E-01  1.06475776E-01 -4.83151667E-07
 -1.51299523E-05  1.53232984E-05 -2.92722677E-02 -1.30741571E-02 -1.99768800E-05
 -6.32542631E-07  2.01900048E-06  1.02566863E-06 -1.29518909E-01 -5.78517478E-02
 -3.57064674E-07  1.99116217E-06 -6.94434809E-02 -3.10150349E-02  7.16418118E-07
 -4.83981282E-03  4.83883860E-03  1.59653159E-02  7.13131836E-03 -6.36332601E-03
 -5.17153215E-07  1.08616709E-06 -5.86400634E-06  3.45123578E-01  1.54145746E-01
  4.31066714E-06 -4.92436817E-07  2.05204978E-01  9.16515789E-02  1.46154570E-07
 -4.35498919E-04  4.35471023E-04  2.47184940E-02  1.10402534E-02 -5.72497356E-04
  5.87070142E-02  6.14269402E-02 -6.63441238E-05 -7.76221607E-04 -2.63858549E-03
  5.80280394E-02  6.07189102E-02 -6.49515791E-05 -2.50262762E-03  1.15589743E-03
 -1.16742087E-01 -1.22152647E-01  1.32019790E-04  1.64771286E-03  7.53563547E-04
 -1.69997487E-07 -2.48296334E-06  3.54836799E-06 -1.49065563E-01 -4.00725901E-01
  2.98274217E-05 -8.55163392E-06 -1.76789631E-01 -4.75251773E-01 -1.97845812E-07
 -4.13690577E-04  4.12451009E-04 -2.13787166E-03 -5.74717980E-03 -2.66302810E-05
 -5.26850959E-06  1.15307192E-05 -1.26304096E-05  2.69984702E-02  7.25595026E-02
  3.68641835E-05 -1.31834110E-05  1.39124090E-01  3.74004322E-01  2.96384264E-06
 -1.22385175E-02  1.22349477E-02  1.43983798E-02  3.87071478E-02 -7.88349582E-04
 -4.50177891E-06  1.24856177E-05 -1.27687052E-05  1.48430125E-01  3.99015796E-01
  4.19484044E-06 -3.41755705E-05  1.70160817E-01  4.57427648E-01 -8.79911337E-08
 -3.29388749E-03  3.29370449E-03 -1.36288630E-02 -3.66373134E-02 -2.12119129E-04
 -3.92674534E-02 -1.77144087E-01  1.98151022E-03  3.21906325E-04  7.30632019E-04
  1.43638986E-01  6.47840076E-01 -7.24784959E-03  2.64065829E-04  5.81498957E-04
 -1.04386780E-01 -4.70841641E-01  5.26686750E-03  1.64438486E-04  7.04689323E-04
  4.43921472E-07  9.79772100E-07 -5.58547876E-07 -4.00721775E-01  1.49071860E-01
 -2.51774209E-05  7.92376597E-06 -4.75252653E-01  1.76796779E-01  2.46639521E-07
  2.33986262E-05 -2.24963205E-05 -5.74737190E-03  2.13807852E-03 -4.77076593E-04
  4.10927807E-06 -1.09374702E-05  7.79483588E-06  7.25714722E-02 -2.69899535E-02
 -2.07745375E-05  2.38807963E-05  3.74004309E-01 -1.39133511E-01 -1.11009522E-06
  6.81004162E-04 -6.79227823E-04  3.87056506E-02 -1.43990736E-02 -1.41294703E-02
  1.43676942E-06 -4.03119021E-06  4.11920487E-06  3.99018340E-01 -1.48437403E-01
 -1.99262868E-06  2.92471364E-05  4.57435684E-01 -1.70167305E-01 -4.22724377E-07
  1.83288523E-04 -1.82988640E-04 -3.66369178E-02  1.36290443E-02 -3.80326532E-03
  1.43195493E-01  6.45888549E-01 -7.22667422E-03  6.15372839E-04 -1.78742929E-04
 -3.75850520E-02 -1.69520841E-01  1.89772166E-03  7.62240682E-04 -2.36541534E-04
 -1.05599907E-01 -4.76284621E-01  5.33003833E-03  6.40140845E-04 -3.35153996E-04
 -3.12348283E-02  3.80926337E-02 -8.33473684E-02 -8.22140202E-06  4.20489365E-05
  7.08544828E-01 -3.28567060E-01 -8.70191498E-06  5.14834680E-05  3.09832975E-03
 -1.30135658E-02 -1.30132678E-02 -4.15587528E-07  1.06411057E-06  1.47896027E-07
 -1.55441350E-01  2.43575482E-01 -6.95527625E-02  2.31314052E-06  4.56668686E-05
  2.12338480E+00 -4.64739137E-01  4.34030493E-05  7.64394360E-05 -1.10328474E-02
 -1.38796605E-02 -1.38790352E-02  1.07631183E-07 -2.57614786E-06  1.16366688E-06
  2.79779166E-02  2.84423873E-02  4.40109319E-02  1.15789352E-05 -4.40704613E-05
 -8.71669850E-01 -4.03842527E-01  5.27263707E-06 -6.18282074E-05  2.43679540E-02
 -2.82030077E-03 -2.81918763E-03 -4.34065665E-07  2.41903077E-06  9.01352379E-07
 -2.56467574E-02 -1.07984838E+00  1.01861199E-03  4.90386828E-03 -3.52824561E-03
 -2.56392503E-02 -1.07981404E+00  1.02114265E-03  6.01881710E-04  6.00957315E-03
 -2.56396384E-02 -1.07985395E+00  1.01917114E-03 -5.50809782E-03 -2.47958453E-03
  3.56651895E-06 -1.14960825E-05  1.52370406E-05 -1.86611435E-01  2.67841905E-03
 -1.79257899E-05  2.46727429E-05 -3.29153651E-01  4.72770493E-03 -1.79366345E-06
  3.69270639E-04 -3.68836641E-04 -5.25011737E-03  7.49282455E-05  1.44837327E-03
  4.54686970E-06 -3.12548164E-07 -3.11660203E-05 -4.43271247E-01  6.37633913E-03
 -1.22876621E-04 -1.26429925E-04 -1.31941694E+00  1.90122276E-02  3.26462503E-06
  3.45782744E-03 -3.46087039E-03  1.16280822E-02 -1.67206548E-04  1.35738094E-02
 -8.94091366E-06  6.58565345E-06 -1.72936463E-05  2.13876312E-01 -3.06448653E-03
  1.90801161E-04 -6.50830186E-05  5.74158409E-01 -8.25453590E-03 -1.97723815E-06
  2.48922667E-03 -2.48863147E-03  3.56195367E-04 -5.15210088E-06  9.76746301E-03
 -3.59605308E-02 -1.34237324E+00 -1.63062673E-03 -1.79955293E-04 -9.49435032E-03
 -3.77575023E-03 -1.40238918E-01 -1.71672793E-04 -1.34716768E-02  1.92099478E-03
  3.97022820E-02  1.48262464E+00  1.79902463E-03  3.05937881E-03  7.72370209E-03
  1.62782900E-05 -5.00159559E-05  6.91181227E-05  2.68806475E-03  1.86600771E-01
 -1.12236847E-04  1.12118210E-04  4.73802910E-03  3.29151917E-01 -6.30175927E-06
 -1.25303798E-03  1.25527385E-03  7.60748859E-05  5.25018856E-03  4.26023516E-04
  3.09034902E-05 -4.87872332E-05 -1.04485782E-04  6.37115064E-03  4.43274727E-01
 -5.51314810E-04 -3.53084308E-04  1.89319438E-02  1.31947468E+00  1.47675929E-05
 -1.17599615E-02  1.17490195E-02 -1.67184395E-04 -1.16258436E-02  3.99212409E-03
 -4.40596425E-05  5.42885151E-05 -9.15151464E-05 -3.08634827E-03 -2.13869779E-01
  7.39427296E-04 -1.99499594E-04 -8.25703950E-03 -5.74173682E-01 -1.05322900E-05
 -8.45609349E-03  8.46030983E-03 -5.10021763E-06 -3.58315503E-04  2.87301953E-03
 -2.51095472E-02 -9.37045210E-01 -1.14190250E-03  9.59659416E-03  6.88021283E-03