carbon def2-tzvpp                                                       
SP        RHF                                                         def2QZVPP           
Number of atoms                            I                5
Info1-9                                    I   N=           9
          16          13           0           0           0         111
           1           1           2
Full Title                                 C   N=           2
carbon def2-tzvpp       
Route                                      C   N=           5
#P hf def2qzvpp gfinput iop(6/7=3,3/33=4) nosymm pop=full   
Charge                                     I                0
Multiplicity                               I                1
Number of electrons                        I               10
Number of alpha electrons                  I                5
Number of beta electrons                   I                5
Number of basis functions                  I              177
Number of independent functions            I              177
Number of point charges in /Mol/           I                0
Number of translation vectors              I                0
Atomic numbers                             I   N=           5
           6           1           1           1           1
Nuclear charges                            R   N=           5
  6.00000000E+00  1.00000000E+00  1.00000000E+00  1.00000000E+00  1.00000000E+00
Current cartesian coordinates              R   N=          15
 -2.59837325E+00  7.76137505E-01  0.00000000E+00 -1.92439406E+00 -1.13023711E+00
  0.00000000E+00 -1.92435927E+00  1.72931194E+00  1.65096206E+00 -1.92435927E+00
  1.72931194E+00 -1.65096206E+00 -4.62038020E+00  7.76162411E-01  0.00000000E+00
Number of symbols in /Mol/                 I                0
Force Field                                I                0
Atom Types                                 C   N=           5
                                                            
Int Atom Types                             I   N=           5
           0           0           0           0           0
MM charges                                 R   N=           5
  0.00000000E+00  0.00000000E+00  0.00000000E+00  0.00000000E+00  0.00000000E+00
Integer atomic weights                     I   N=           5
          12           1           1           1           1
Real atomic weights                        R   N=           5
  1.20000000E+01  1.00782504E+00  1.00782504E+00  1.00782504E+00  1.00782504E+00
Atom fragment info                         I   N=           5
           0           0           0           0           0
Atom residue num                           I   N=           5
           0           0           0           0           0
Nuclear spins                              I   N=           5
           0           1           1           1           1
Nuclear ZEff                               R   N=           5
 -3.60000000E+00 -1.00000000E+00 -1.00000000E+00 -1.00000000E+00 -1.00000000E+00
Nuclear ZNuc                               R   N=           5
  6.00000000E+00  1.00000000E+00  1.00000000E+00  1.00000000E+00  1.00000000E+00
Nuclear QMom                               R   N=           5
  0.00000000E+00  0.00000000E+00  0.00000000E+00  0.00000000E+00  0.00000000E+00
Nuclear GFac                               R   N=           5
  0.00000000E+00  2.79284600E+00  2.79284600E+00  2.79284600E+00  2.79284600E+00
MicOpt                                     I   N=           5
          -1          -1          -1          -1          -1
Number of residues                         I                0
Number of secondary structures             I                0
Number of contracted shells                I               57
Number of primitive shells                 I               81
Pure/Cartesian d shells                    I                0
Pure/Cartesian f shells                    I                0
Highest angular momentum                   I                4
Largest degree of contraction              I                8
Shell types                                I   N=          57
           0           0           0           0           0           0
           0           1           1           1           1          -2
          -2          -2          -3          -3          -4           0
           0           0           0           1           1           1
          -2          -2          -3           0           0           0
           0           1           1           1          -2          -2
          -3           0           0           0           0           1
           1           1          -2          -2          -3           0
           0           0           0           1           1           1
          -2          -2          -3
Number of primitives per shell             I   N=          57
           8           2           1           1           1           1
           1           5           1           1           1           1
           1           1           1           1           1           4
           1           1           1           1           1           1
           1           1           1           4           1           1
           1           1           1           1           1           1
           1           4           1           1           1           1
           1           1           1           1           1           4
           1           1           1           1           1           1
           1           1           1
Shell to atom map                          I   N=          57
           1           1           1           1           1           1
           1           1           1           1           1           1
           1           1           1           1           1           2
           2           2           2           2           2           2
           2           2           2           3           3           3
           3           3           3           3           3           3
           3           4           4           4           4           4
           4           4           4           4           4           5
           5           5           5           5           5           5
           5           5           5
Primitive exponents                        R   N=          81
  6.70250710E+04  1.00399865E+04  2.28493169E+03  6.47141221E+02  2.11094723E+02
  7.61776439E+01  2.96338392E+01  1.21877851E+01  5.30260063E+01  1.52585028E+01
  5.24039575E+00  2.29050224E+00  6.96732830E-01  2.75993374E-01  1.07398844E-01
  1.05125551E+02  2.48844611E+01  7.86372308E+00  2.84070018E+00  1.12271373E+00
  4.60507256E-01  1.89375309E-01  7.59837916E-02  1.84800000E+00  6.49000000E-01
  2.28000000E-01  1.41900000E+00  4.85000000E-01  1.01100000E+00  1.90691690E+02
  2.86055320E+01  6.50959430E+00  1.84124550E+00  5.98537250E-01  2.13976240E-01
  8.03162860E-02  2.29200000E+00  8.38000000E-01  2.92000000E-01  2.06200000E+00
  6.62000000E-01  1.39700000E+00  1.90691690E+02  2.86055320E+01  6.50959430E+00
  1.84124550E+00  5.98537250E-01  2.13976240E-01  8.03162860E-02  2.29200000E+00
  8.38000000E-01  2.92000000E-01  2.06200000E+00  6.62000000E-01  1.39700000E+00
  1.90691690E+02  2.86055320E+01  6.50959430E+00  1.84124550E+00  5.98537250E-01
  2.13976240E-01  8.03162860E-02  2.29200000E+00  8.38000000E-01  2.92000000E-01
  2.06200000E+00  6.62000000E-01  1.39700000E+00  1.90691690E+02  2.86055320E+01
  6.50959430E+00  1.84124550E+00  5.98537250E-01  2.13976240E-01  8.03162860E-02
  2.29200000E+00  8.38000000E-01  2.92000000E-01  2.06200000E+00  6.62000000E-01
  1.39700000E+00
Contraction coefficients                   R   N=          81
  7.09883366E-05  5.51759078E-04  2.89330111E-03  1.21111499E-02  4.28226973E-02
  1.29053329E-01  3.18146478E-01  5.91790275E-01  9.13649169E-02  9.28761090E-01
  1.00000000E+00  1.00000000E+00  1.00000000E+00  1.00000000E+00  1.00000000E+00
  2.49653501E-03  1.95463956E-02  8.88349466E-02  2.94789686E-01  7.02715999E-01
  1.00000000E+00  1.00000000E+00  1.00000000E+00  1.00000000E+00  1.00000000E+00
  1.00000000E+00  1.00000000E+00  1.00000000E+00  1.00000000E+00  5.34263696E-03
  4.12523382E-02  2.10993526E-01  8.12128546E-01  1.00000000E+00  1.00000000E+00
  1.00000000E+00  1.00000000E+00  1.00000000E+00  1.00000000E+00  1.00000000E+00
  1.00000000E+00  1.00000000E+00  5.34263696E-03  4.12523382E-02  2.10993526E-01
  8.12128546E-01  1.00000000E+00  1.00000000E+00  1.00000000E+00  1.00000000E+00
  1.00000000E+00  1.00000000E+00  1.00000000E+00  1.00000000E+00  1.00000000E+00
  5.34263696E-03  4.12523382E-02  2.10993526E-01  8.12128546E-01  1.00000000E+00
  1.00000000E+00  1.00000000E+00  1.00000000E+00  1.00000000E+00  1.00000000E+00
  1.00000000E+00  1.00000000E+00  1.00000000E+00  5.34263696E-03  4.12523382E-02
  2.10993526E-01  8.12128546E-01  1.00000000E+00  1.00000000E+00  1.00000000E+00
  1.00000000E+00  1.00000000E+00  1.00000000E+00  1.00000000E+00  1.00000000E+00
  1.00000000E+00
Coordinates of each shell                  R   N=         171
 -2.59837325E+00  7.76137505E-01  0.00000000E+00 -2.59837325E+00  7.76137505E-01
  0.00000000E+00 -2.59837325E+00  7.76137505E-01  0.00000000E+00 -2.59837325E+00
  7.76137505E-01  0.00000000E+00 -2.59837325E+00  7.76137505E-01  0.00000000E+00
 -2.59837325E+00  7.76137505E-01  0.00000000E+00 -2.59837325E+00  7.76137505E-01
  0.00000000E+00 -2.59837325E+00  7.76137505E-01  0.00000000E+00 -2.59837325E+00
  7.76137505E-01  0.00000000E+00 -2.59837325E+00  7.76137505E-01  0.00000000E+00
 -2.59837325E+00  7.76137505E-01  0.00000000E+00 -2.59837325E+00  7.76137505E-01
  0.00000000E+00 -2.59837325E+00  7.76137505E-01  0.00000000E+00 -2.59837325E+00
  7.76137505E-01  0.00000000E+00 -2.59837325E+00  7.76137505E-01  0.00000000E+00
 -2.59837325E+00  7.76137505E-01  0.00000000E+00 -2.59837325E+00  7.76137505E-01
  0.00000000E+00 -1.92439406E+00 -1.13023711E+00  0.00000000E+00 -1.92439406E+00
 -1.13023711E+00  0.00000000E+00 -1.92439406E+00 -1.13023711E+00  0.00000000E+00
 -1.92439406E+00 -1.13023711E+00  0.00000000E+00 -1.92439406E+00 -1.13023711E+00
  0.00000000E+00 -1.92439406E+00 -1.13023711E+00  0.00000000E+00 -1.92439406E+00
 -1.13023711E+00  0.00000000E+00 -1.92439406E+00 -1.13023711E+00  0.00000000E+00
 -1.92439406E+00 -1.13023711E+00  0.00000000E+00 -1.92439406E+00 -1.13023711E+00
  0.00000000E+00 -1.92435927E+00  1.72931194E+00  1.65096206E+00 -1.92435927E+00
  1.72931194E+00  1.65096206E+00 -1.92435927E+00  1.72931194E+00  1.65096206E+00
 -1.92435927E+00  1.72931194E+00  1.65096206E+00 -1.92435927E+00  1.72931194E+00
  1.65096206E+00 -1.92435927E+00  1.72931194E+00  1.65096206E+00 -1.92435927E+00
  1.72931194E+00  1.65096206E+00 -1.92435927E+00  1.72931194E+00  1.65096206E+00
 -1.92435927E+00  1.72931194E+00  1.65096206E+00 -1.92435927E+00  1.72931194E+00
  1.65096206E+00 -1.92435927E+00  1.72931194E+00 -1.65096206E+00 -1.92435927E+00
  1.72931194E+00 -1.65096206E+00 -1.92435927E+00  1.72931194E+00 -1.65096206E+00
 -1.92435927E+00  1.72931194E+00 -1.65096206E+00 -1.92435927E+00  1.72931194E+00
 -1.65096206E+00 -1.92435927E+00  1.72931194E+00 -1.65096206E+00 -1.92435927E+00
  1.72931194E+00 -1.65096206E+00 -1.92435927E+00  1.72931194E+00 -1.65096206E+00
 -1.92435927E+00  1.72931194E+00 -1.65096206E+00 -1.92435927E+00  1.72931194E+00
 -1.65096206E+00 -4.62038020E+00  7.76162411E-01  0.00000000E+00 -4.62038020E+00
  7.76162411E-01  0.00000000E+00 -4.62038020E+00  7.76162411E-01  0.00000000E+00
 -4.62038020E+00  7.76162411E-01  0.00000000E+00 -4.62038020E+00  7.76162411E-01
  0.00000000E+00 -4.62038020E+00  7.76162411E-01  0.00000000E+00 -4.62038020E+00
  7.76162411E-01  0.00000000E+00 -4.62038020E+00  7.76162411E-01  0.00000000E+00
 -4.62038020E+00  7.76162411E-01  0.00000000E+00 -4.62038020E+00  7.76162411E-01
  0.00000000E+00
Num ILSW                                   I              100
ILSW                                       I   N=         100
           0           0           0           0           2           0
           0           0           0           0           0          -1
           5           0           0           0           0           0
           0           0           0           0           0           0
           1           1           0           0           0           0
           0           0      100000           0          -1           0
           0           0           0           0           0           0
           0           0           0           1           0           0
           0 -2000000000           1           0           0           0
           0           0           4          52           0           0
           0           0           0           0           0           0
           0           0           0           5           0           1
           0           0           0           0           0           0
           0           0           0           0           0           0
           0           0           0           0           0           0
           0           0           0           0           0           0
           0           0           0           0
Num RLSW                                   I               52
RLSW                                       R   N=          52
  1.00000000E+00  1.00000000E+00  1.00000000E+00  1.00000000E+00  1.00000000E+00
  0.00000000E+00  0.00000000E+00  1.00000000E+00  0.00000000E+00  0.00000000E+00
  0.00000000E+00  0.00000000E+00  1.00000000E+00  0.00000000E+00  0.00000000E+00
  0.00000000E+00  0.00000000E+00  1.00000000E+00  0.00000000E+00  0.00000000E+00
  0.00000000E+00  0.00000000E+00  1.00000000E+00  0.00000000E+00  0.00000000E+00
  0.00000000E+00  0.00000000E+00  1.00000000E+00  0.00000000E+00  0.00000000E+00
  0.00000000E+00  0.00000000E+00  1.00000000E+00  0.00000000E+00  0.00000000E+00
  0.00000000E+00  0.00000000E+00  0.00000000E+00  1.00000000E+00  1.00000000E+00
  0.00000000E+00  1.00000000E+00  0.00000000E+00  0.00000000E+00  0.00000000E+00
  0.00000000E+00  0.00000000E+00  0.00000000E+00  0.00000000E+00  0.00000000E+00
  0.00000000E+00  0.00000000E+00
ECP-MxAtEC                                 I           250000
ECP-MaxLECP                                I               10
ECP-MaxAtL                                 I          2250000
ECP-MxTECP                                 I         11250000
ECP-LenNCZ                                 I                0
ECP-KFirst                                 I   N=          50
           0           0           0           0           0           0
           0           0           0           0           0           0
           0           0           0           0           0           0
           0           0           0           0           0           0
           0           0           0           0           0           0
           0           0           0           0           0           0
           0           0           0           0           0           0
           0           0           0           0           0           0
           0           0
ECP-KLast                                  I   N=          50
           0           0           0           0           0           0
           0           0           0           0           0           0
           0           0           0           0           0           0
           0           0           0           0           0           0
           0           0           0           0           0           0
           0           0           0           0           0           0
           0           0           0           0           0           0
           0           0           0           0           0           0
           0           0
ECP-LMax                                   I   N=           5
           0           0           0           0           0
ECP-LPSkip                                 I   N=           5
           1           1           1           1           1
ECP-RNFroz                                 R   N=           5
  0.00000000E+00  0.00000000E+00  0.00000000E+00  0.00000000E+00  0.00000000E+00
ECP-NLP                                    I                0
ECP-CLP1                                   R      0.000000000000000E+00
ECP-CLP2                                   R      0.000000000000000E+00
ECP-ZLP                                    R      0.000000000000000E+00
MxBond                                     I                4
NBond                                      I   N=           5
           4           1           1           1           1
IBond                                      I   N=          20
           2           3           4           5           1           0
           0           0           1           0           0           0
           1           0           0           0           1           0
           0           0
RBond                                      R   N=          20
  1.00000000E+00  1.00000000E+00  1.00000000E+00  1.00000000E+00  1.00000000E+00
  0.00000000E+00  0.00000000E+00  0.00000000E+00  1.00000000E+00  0.00000000E+00
  0.00000000E+00  0.00000000E+00  1.00000000E+00  0.00000000E+00  0.00000000E+00
  0.00000000E+00  1.00000000E+00  0.00000000E+00  0.00000000E+00  0.00000000E+00
Virial Ratio                               R      1.998390422364715E+00
SCF Energy                                 R     -4.021645585147624E+01
Total Energy                               R     -4.021645585147624E+01
RMS Density                                R      4.725091134081003E-09
Job Status                                 I                1
Nuclear derivative order                   I                0
External E-field                           R   N=          35
  0.00000000E+00  0.00000000E+00  0.00000000E+00  0.00000000E+00  0.00000000E+00
  0.00000000E+00  0.00000000E+00  0.00000000E+00  0.00000000E+00  0.00000000E+00
  0.00000000E+00  0.00000000E+00  0.00000000E+00  0.00000000E+00  0.00000000E+00
  0.00000000E+00  0.00000000E+00  0.00000000E+00  0.00000000E+00  0.00000000E+00
  0.00000000E+00  0.00000000E+00  0.00000000E+00  0.00000000E+00  0.00000000E+00
  0.00000000E+00  0.00000000E+00  0.00000000E+00  0.00000000E+00  0.00000000E+00
  0.00000000E+00  0.00000000E+00  0.00000000E+00  0.00000000E+00  0.00000000E+00
IOpCl                                      I                0
IROHF                                      I                0
Alpha Orbital Energies                     R   N=         177
 -1.11962235E+01 -9.50599347E-01 -5.49890851E-01 -5.49890816E-01 -5.49890707E-01
  1.09243113E-01  1.84881322E-01  1.84881328E-01  1.84881356E-01  2.13152326E-01
  2.13152350E-01  2.13152355E-01  4.70931490E-01  4.85214927E-01  4.85214970E-01
  4.85214987E-01  5.44160225E-01  5.44160281E-01  5.77339055E-01  7.90956173E-01
  7.90956184E-01  7.90956208E-01  8.31733409E-01  8.31733452E-01  8.31733481E-01
  8.88962605E-01  8.88962630E-01  8.88962708E-01  1.07726335E+00  1.07726341E+00
  1.07726360E+00  1.15720680E+00  1.21023193E+00  1.21023199E+00  1.21023201E+00
  1.21273673E+00  1.21273686E+00  1.38427562E+00  1.64038799E+00  1.64038831E+00
  1.64038831E+00  1.91399767E+00  1.91399767E+00  2.03717542E+00  2.03717547E+00
  2.03717549E+00  2.11266850E+00  2.11266852E+00  2.11266856E+00  2.25480517E+00
  2.36795732E+00  2.36795752E+00  2.36795759E+00  2.37092220E+00  2.37092224E+00
  2.37092251E+00  2.49933545E+00  2.49933586E+00  2.71075652E+00  2.76334081E+00
  2.76334089E+00  2.76403232E+00  2.76403236E+00  2.76403266E+00  2.96504119E+00
  2.96504120E+00  2.96504145E+00  3.14527927E+00  3.14527942E+00  3.14527973E+00
  3.24118029E+00  3.24329126E+00  3.24329156E+00  3.24329166E+00  3.47220934E+00
  3.47220942E+00  3.47220982E+00  3.48822446E+00  3.48822491E+00  3.48822494E+00
  3.73880470E+00  4.11920836E+00  4.11920854E+00  4.11920855E+00  4.16509673E+00
  4.16509699E+00  4.40852582E+00  4.40852584E+00  4.40852595E+00  5.65145435E+00
  5.65145461E+00  5.72512921E+00  5.72512925E+00  5.72512927E+00  5.98623092E+00
  6.05157400E+00  6.05157403E+00  6.05157436E+00  6.23133935E+00  6.25075550E+00
  6.25075550E+00  6.25075586E+00  6.35540224E+00  6.35540267E+00  6.35540271E+00
  6.53691743E+00  6.53691774E+00  6.53691806E+00  6.62997307E+00  6.76491175E+00
  6.76491190E+00  6.76491193E+00  6.86680483E+00  6.96429447E+00  6.96429473E+00
  6.96429485E+00  6.97777757E+00  6.97777765E+00  7.35310196E+00  7.62995675E+00
  7.62995687E+00  7.62995736E+00  7.65804038E+00  7.65804065E+00  7.75971496E+00
  7.75971509E+00  7.75971513E+00  7.93739311E+00  7.93739382E+00  7.93739391E+00
  8.03669673E+00  8.03669698E+00  8.04871405E+00  8.04871408E+00  8.04871455E+00
  8.13296839E+00  8.13296845E+00  8.13296911E+00  8.45613607E+00  8.64908677E+00
  8.64967640E+00  8.64967648E+00  8.75665854E+00  8.75665862E+00  8.75665865E+00
  8.75876966E+00  8.75876968E+00  8.75876981E+00  8.77227025E+00  8.77227027E+00
  8.77227041E+00  9.22302815E+00  9.22302839E+00  9.22302955E+00  9.39789188E+00
  9.39789191E+00  9.39789254E+00  9.91687262E+00  9.91687337E+00  1.01479055E+01
  1.01479062E+01  1.01479063E+01  1.02951488E+01  1.02951489E+01  1.05548427E+01
  1.05548433E+01  1.05548434E+01  1.06726210E+01  1.10659517E+01  1.10659518E+01
  1.10659519E+01  1.18603358E+01  1.18603358E+01  1.18603359E+01  1.44281427E+01
  3.01552111E+01  1.50622790E+02
Alpha MO coefficients                      R   N=       31329
  5.45943160E-01 -4.27538574E-04  3.70346157E-01  1.75619316E-01  1.32763579E-02
 -4.34720364E-03 -5.78345189E-04 -8.37188729E-12  3.78439241E-12  1.07245797E-14
  8.44613887E-11 -2.24275470E-10 -1.82676147E-13 -7.25157026E-11  2.83786074E-10
 -3.05069381E-13  6.84184422E-12 -1.56131827E-11  2.92281633E-14  4.41112284E-11
  3.20851197E-15  3.56808108E-15  3.09708381E-11 -4.15939313E-11  9.85521409E-11
 -4.14146056E-14 -5.46390429E-14  5.78166088E-11 -8.78297106E-11 -2.05416338E-10
 -4.84748892E-14 -7.47292616E-14 -1.51195181E-10  1.94889914E-10 -2.00178776E-15
  1.15257058E-04  1.62993808E-04  1.54299172E-15 -6.30414074E-15 -1.48792039E-04
  4.20906610E-05 -2.92972457E-15  6.53868188E-05  9.24684487E-05  1.36382514E-15
 -1.31883272E-14 -8.44115893E-05  2.38785481E-05  1.55896055E-05 -5.36143994E-15
 -7.17962626E-15 -2.32378835E-05  6.57319064E-05  4.08091881E-15 -1.82855769E-15
  3.07442213E-05  2.48426230E-05  1.47224689E-04  2.20402723E-04  1.06284652E-03
 -2.15863571E-05 -1.99722075E-05  5.64921235E-05 -3.30948313E-16 -4.10003601E-06
  1.15970443E-05  1.59900426E-15 -1.46656034E-04  4.14822038E-04  1.45818056E-14
 -2.96111435E-05 -4.77329681E-16  1.68860442E-16 -3.98914578E-05 -3.22355666E-05
 -2.21915453E-05  8.52257566E-16  5.87455105E-15 -2.98959281E-05 -2.41583775E-05
 -7.51718928E-16  1.08148518E-05 -3.58936920E-05  2.53394810E-16 -1.24472773E-15
  4.14187466E-05 -2.49336139E-05  1.47224684E-04  2.20402776E-04  1.06284657E-03
 -2.15863456E-05 -1.99732416E-05 -2.82456920E-05 -4.89234119E-05 -4.10025232E-06
 -5.79841337E-06 -1.00433593E-05 -1.46663682E-04 -2.07408281E-04 -3.59244962E-04
  2.96111706E-05  2.79181529E-05  3.94811768E-05 -5.69826175E-06  1.61183919E-05
  2.21915965E-05  2.09227579E-05  2.95884389E-05 -4.27042968E-06  1.20796540E-05
 -8.04356560E-06 -2.94028723E-05 -4.15808328E-05  1.03834014E-05 -2.93710488E-05
  1.02670735E-05 -2.90438489E-06  1.47224684E-04  2.20402776E-04  1.06284657E-03
 -2.15863455E-05 -1.99732416E-05 -2.82456920E-05  4.89234119E-05 -4.10025229E-06
 -5.79841331E-06  1.00433592E-05 -1.46663682E-04 -2.07408281E-04  3.59244962E-04
  2.96111706E-05 -2.79181529E-05 -3.94811768E-05 -5.69826175E-06  1.61183919E-05
  2.21915964E-05 -2.09227579E-05 -2.95884389E-05 -4.27042968E-06  1.20796539E-05
  8.04356560E-06 -2.94028723E-05 -4.15808328E-05 -1.03834014E-05  2.93710488E-05
  1.02670735E-05 -2.90438489E-06  1.47224682E-04  2.20402793E-04  1.06284657E-03
 -2.15863423E-05  5.99186906E-05 -7.42852095E-10 -9.26080141E-16  1.23005242E-05
 -1.26752190E-10  3.25264914E-15  4.39983375E-04 -5.38695458E-09  1.98243523E-14
 -2.96111509E-05  1.17890449E-16 -4.58182296E-16  5.12880142E-05 -1.26205209E-09
 -2.21915314E-05  6.51625013E-15  2.58137033E-15  3.84368956E-05 -9.26912286E-10
 -6.44552326E-16 -3.74458872E-05 -1.76730338E-06  8.71581657E-16 -1.21694733E-15
  4.83423971E-05 -4.58218092E-07 -9.94693525E-02 -1.32278043E-02 -1.20180282E-01
 -8.03199011E-02  2.27758984E-01  4.09703036E-01  9.75101181E-02  4.47208270E-09
 -1.54166335E-08  2.47282837E-14  4.39433124E-09 -1.53061290E-08 -6.33748001E-13
  1.68876708E-09 -5.52611607E-09 -2.79862628E-12 -5.51056489E-10  2.11892957E-09
  3.65300833E-13  1.61064681E-09  4.30831218E-15  3.05725210E-15  1.10042741E-09
 -1.45010615E-09  6.81032100E-09 -1.21331963E-13 -1.41955057E-13  4.86841299E-09
 -5.87193856E-09  5.50707539E-09 -5.08607920E-13 -6.08705182E-13  3.79407379E-09
 -5.55087884E-09 -2.75477025E-15  2.03741583E-03  2.88126525E-03  3.53974308E-15
 -1.12648673E-14 -2.63021851E-03  7.44042720E-04 -7.16415527E-15  4.14781052E-03
  5.86573558E-03  8.70246124E-16 -4.40016209E-14 -5.35464981E-03  1.51473661E-03
  2.40216573E-04 -1.14177663E-14 -1.30694330E-14 -3.58067892E-04  1.01284897E-03
  9.03226934E-15 -4.54747907E-15  4.73731302E-04  3.82794499E-04  4.86274009E-02
  7.91596675E-02  5.97797519E-02  4.84358687E-03 -1.25176654E-03  3.54066707E-03
  2.76988754E-15 -2.38915589E-03  6.75781708E-03 -1.27145561E-14 -7.78918327E-04
  2.20319096E-03  1.73825801E-13 -3.55563712E-04 -3.46379975E-15 -2.05480431E-15
 -4.79007386E-04 -3.87077117E-04 -1.89002017E-04  1.18103237E-14  3.11047300E-14
 -2.54619245E-04 -2.05753120E-04 -2.48005480E-15 -4.44714701E-05  1.29359561E-04
 -1.36676819E-15 -2.68307571E-15 -1.50585179E-04  9.22379770E-05  4.86273966E-02
  7.91596597E-02  5.97797412E-02  4.84358272E-03 -1.25183099E-03 -1.77030955E-03
 -3.06629473E-03 -2.38927990E-03 -3.37886360E-03 -5.85241512E-03 -7.78954054E-04
 -1.10157822E-03 -1.90801183E-03  3.55563833E-04  3.35234518E-04  4.74080721E-04
 -6.84234185E-05  1.93545932E-04  1.89001677E-04  1.78195570E-04  2.52000380E-04
 -3.63710313E-05  1.02880470E-04  3.02098481E-05  1.06577439E-04  1.50719196E-04
 -3.89977595E-05  1.10311194E-04 -3.35864584E-05  9.50105345E-06  4.86273966E-02
  7.91596597E-02  5.97797412E-02  4.84358272E-03 -1.25183099E-03 -1.77030955E-03
  3.06629473E-03 -2.38927990E-03 -3.37886360E-03  5.85241512E-03 -7.78954054E-04
 -1.10157822E-03  1.90801183E-03  3.55563833E-04 -3.35234518E-04 -4.74080721E-04
 -6.84234185E-05  1.93545932E-04  1.89001677E-04 -1.78195570E-04 -2.52000380E-04
 -3.63710312E-05  1.02880470E-04 -3.02098481E-05  1.06577439E-04  1.50719196E-04
  3.89977595E-05 -1.10311194E-04 -3.35864584E-05  9.50105345E-06  4.86273965E-02
  7.91596598E-02  5.97797422E-02  4.84358304E-03  3.75542808E-03 -4.63600086E-08
  2.94852704E-15  7.16771522E-03 -8.80998198E-08 -9.54944972E-15  2.33682574E-03
 -3.14178649E-08  1.25679832E-13 -3.55563655E-04  4.66158890E-16 -2.76085438E-15
  6.15854401E-04 -1.51727426E-08 -1.89001805E-04  1.68883787E-14  1.42664538E-14
  3.27360789E-04 -8.36689453E-09 -1.58253209E-15  1.36785250E-04  1.18840523E-06
  2.14009624E-15 -1.88773865E-15 -1.76588926E-04  3.13728545E-07 -6.90142330E-16
  2.07113027E-15 -8.48153176E-15  2.63667838E-14 -3.45110147E-13  1.56899052E-12
  9.22096270E-14 -1.91449117E-09  2.61540575E-09  2.24200843E-01 -1.93211338E-09
  2.63875190E-09  2.26207976E-01 -1.40871275E-09  1.92170007E-09  1.64746247E-01
 -3.39054482E-10  4.63601504E-10  3.97365534E-02  3.22961524E-11  4.68577972E-03
  6.62651749E-03  9.86691056E-11  5.46591982E-11  8.63447969E-11  1.25430869E-02
  1.77381329E-02  2.64229366E-10  1.46288646E-10  6.40579010E-11  9.33962105E-03
  1.32078693E-02  1.97110344E-10  1.08920489E-10  4.63173968E-04  2.20617005E-11
 -9.21230658E-12 -5.97909594E-04  1.69127850E-03  3.73113610E-12 -1.14899867E-11
  1.92666594E-04  9.24514100E-12 -3.76416165E-12 -2.48709965E-04  7.03516203E-04
  1.44298174E-12 -4.75861289E-12 -1.93985504E-12  3.87744445E-04  5.48338861E-04
 -7.96069770E-12 -9.50026342E-13 -3.41948383E-04  9.67312700E-05  2.55455653E-12
 -6.80452102E-12 -1.39386327E-09 -2.66780964E-09 -3.09290072E-09 -9.22252338E-10
  1.65207261E-11 -7.00726810E-11  1.86965547E-03  3.58849403E-11 -1.81361938E-10
  6.39309224E-03  3.01352057E-11 -2.07168508E-10  9.78773162E-03  1.25612915E-11
 -2.14665075E-04  8.42478273E-04  1.96978308E-11  1.12830653E-11  1.06778371E-11
 -5.79675598E-04  2.26379148E-03  2.18008444E-11  5.18043466E-12 -3.35759276E-04
  6.51208143E-13  2.26903162E-12 -3.74247528E-04 -2.26526031E-04 -1.40856816E-12
  3.21438282E-12  8.22041725E-02  1.57325483E-01  1.82425684E-01  5.43879531E-02
 -1.91596887E-03 -2.70951739E-03 -2.82341086E-03 -5.33535516E-03 -7.54513121E-03
 -6.67558370E-03 -6.70241836E-03 -9.47840006E-03 -6.62949362E-03  3.36232677E-04
  8.22693057E-04  1.16343283E-03 -2.11733838E-04  5.98921428E-04 -4.58320646E-04
  9.26372170E-04  1.31005320E-03 -3.07400972E-04  8.69530587E-04  2.58774978E-04
 -7.62641459E-05 -1.07850935E-04  6.97703068E-05 -1.97355991E-04  1.25965194E-04
 -3.56334433E-05 -8.22041720E-02 -1.57325482E-01 -1.82425683E-01 -5.43879527E-02
  1.91596882E-03  2.70951742E-03 -2.82341082E-03  5.33535502E-03  7.54513131E-03
 -6.67558361E-03  6.70241815E-03  9.47840023E-03 -6.62949351E-03 -3.36232666E-04
  8.22693039E-04  1.16343284E-03  2.11733853E-04 -5.98921422E-04  4.58320665E-04
  9.26372130E-04  1.31005323E-03  3.07401012E-04 -8.69530577E-04  2.58774982E-04
  7.62641387E-05  1.07850938E-04  6.97703183E-05 -1.97355988E-04 -1.25965196E-04
  3.56334378E-05  8.59768762E-10  1.64499355E-09  1.90519855E-09  5.69348826E-10
  4.41578539E-11  2.18103060E-11  1.86965522E-03  1.12635717E-10  7.45734478E-11
  6.39309125E-03  1.25777148E-10  1.14179411E-10  9.78773071E-03 -7.12794058E-12