[Molden Format]
[Title]
 Molden file created by orca_2mkl for BaseName=06_ch4_triplet

[Atoms] AU
C    1   6         -2.5983732641         0.7761375085         0.0000000000 
H    2   1         -1.9243940669        -1.1302371127         0.0000000000 
H    3   1         -1.9243592771         1.7293119500         1.6509620715 
H    4   1         -1.9243592771         1.7293119500        -1.6509620715 
H    5   1         -4.6203802274         0.7761624151         0.0000000000 
[GTO]
  1 0
s   5 1.0 
     1238.4016938000         0.8208956682
      186.2900499200         1.4766449896
       42.2511763460         2.1526124058
       11.6765579320         2.1081722461
        3.5930506482         0.8290999933
s   1 1.0 
        0.4024514736         0.3601183351
s   1 1.0 
        0.1309018267         0.1551027052
p   3 1.0 
        9.4680970621         1.3467645142
        2.0103545142         1.0678070931
        0.5477100471         0.5108735714
p   1 1.0 
        0.1526861379         0.1360471976
d   1 1.0 
        0.8000000000         1.9292013661

  2 0
s   3 1.0 
       13.0107010000         0.1634903809
        1.9622572000         0.2773515510
        0.4445379600         0.3157501452
s   1 1.0 
        0.1219496200         0.1470772262
p   1 1.0 
        0.8000000000         1.0784563492

  3 0
s   3 1.0 
       13.0107010000         0.1634903809
        1.9622572000         0.2773515510
        0.4445379600         0.3157501452
s   1 1.0 
        0.1219496200         0.1470772262
p   1 1.0 
        0.8000000000         1.0784563492

  4 0
s   3 1.0 
       13.0107010000         0.1634903809
        1.9622572000         0.2773515510
        0.4445379600         0.3157501452
s   1 1.0 
        0.1219496200         0.1470772262
p   1 1.0 
        0.8000000000         1.0784563492

  5 0
s   3 1.0 
       13.0107010000         0.1634903809
        1.9622572000         0.2773515510
        0.4445379600         0.3157501452
s   1 1.0 
        0.1219496200         0.1470772262
p   1 1.0 
        0.8000000000         1.0784563492

[5D]
[7F]
[9G]
[MO]
 Sym=     1a
 Ene= -1.13336979171883E+01
 Spin= Alpha
 Occup= 1.000000
  1      -0.990295381864
  2      -0.039543155713
  3       0.031546270594
  4      -0.000085519494
  5      -0.000120942007
  6      -0.000000000087
  7      -0.000038352374
  8      -0.000054238730
  9       0.000000000002
 10      -0.000373873529
 11      -0.000000000039
 12      -0.000000000054
 13      -0.000003848373
 14       0.000010881098
 15       0.001630412518
 16      -0.006113859708
 17      -0.000366924760
 18       0.001066943148
 19      -0.000000000002
 20       0.001731743968
 21      -0.006015157591
 22      -0.000407172915
 23      -0.000575814209
 24      -0.000917783878
 25       0.001731743904
 26      -0.006015157606
 27      -0.000407172905
 28      -0.000575814195
 29       0.000917783852
 30       0.001630414855
 31      -0.006113859881
 32       0.001128233836
 33       0.000009680122
 34      -0.000000000002
 Sym=     1a
 Ene= -1.11754510765998E+00
 Spin= Alpha
 Occup= 1.000000
  1       0.260008043173
  2      -0.525737009479
  3      -0.081537171200
  4      -0.024792509810
  5      -0.035060871723
  6      -0.000000010984
  7       0.003024906625
  8       0.004277722614
  9      -0.000000000028
 10      -0.013660683012
 11      -0.000000000958
 12      -0.000000001313
 13      -0.000018791797
 14       0.000053123905
 15      -0.151108890551
 16      -0.016362935027
 17       0.006989115423
 18      -0.024240160355
 19      -0.000000000130
 20      -0.223867005744
 21      -0.026410317839
 22       0.012357516003
 23       0.017475705733
 24       0.024664709245
 25      -0.223866989332
 26      -0.026410315784
 27       0.012357515188
 28       0.017475704555
 29      -0.024664707772
 30      -0.151108888409
 31      -0.016362922197
 32      -0.025183584173
 33      -0.001490035226
 34      -0.000000000117
 Sym=     1a
 Ene= -7.55291360218569E-01
 Spin= Alpha
 Occup= 1.000000
  1       0.000000006999
  2      -0.000000011126
  3      -0.000000020172
  4       0.000000018068
  5       0.000000025150
  6       0.446654445414
  7       0.000000005498
  8       0.000000007591
  9       0.148506594068
 10       0.000000002023
 11       0.016898629758
 12       0.023897642213
 13      -0.000000000357
 14       0.000000000983
 15      -0.000000019397
 16      -0.000000003926
 17       0.000000001007
 18      -0.000000001233
 19       0.008932559302
 20       0.357150802644
 21       0.094969433459
 22      -0.015631066043
 23      -0.022105072985
 24      -0.010731680275
 25      -0.357150770355
 26      -0.094969419208
 27       0.015631065952
 28       0.022105072796
 29      -0.010731677768
 30      -0.000000019627
 31      -0.000000003949
 32      -0.000000001514
 33       0.000000000534
 34       0.008932561600
 Sym=     1a
 Ene= -6.80983190674927E-01
 Spin= Alpha
 Occup= 1.000000
  1       0.029503955534
  2      -0.054460207423
  3      -0.091301306822
  4       0.260559996360
  5       0.368476206948
  6      -0.000000033695
  7       0.095619664586
  8       0.135222429413
  9      -0.000000013835
 10       0.021805278935
 11      -0.000000000874
 12      -0.000000001230
 13      -0.004861387025
 14       0.013751022807
 15      -0.234130428712
 16      -0.062461767740
 17       0.013498148194
 18      -0.011532188291
 19      -0.000000000478
 20       0.243404894838
 21       0.079204256470
 22      -0.001455380535
 23      -0.002058209874
 24      -0.016431245095
 25       0.243404942513
 26       0.079204267438
 27      -0.001455383105
 28      -0.002058213483
 29       0.016431245498
 30      -0.234131650094
 31      -0.062461993114
 32      -0.015371897847
 33       0.008882460652
 34      -0.000000000456
 Sym=     1a
 Ene= -6.56366142019864E-01
 Spin= Alpha
 Occup= 1.000000
  1      -0.000000048210
  2       0.000000122503
  3       0.000000120575
  4       0.391248188305
  5      -0.276662522767
  6      -0.000000000161
  7       0.167334301499
  8      -0.118326713958
  9      -0.000000000030
 10      -0.000000046624
 11       0.000000000654
 12      -0.000000000482
 13      -0.022210880238
 14      -0.007852151140
 15       0.304712424460
 16       0.081815507539
 17       0.000164976955
 18       0.020128080149
 19      -0.000000000344
 20      -0.000000489481
 21      -0.000000201575
 22       0.013655021569
 23      -0.009655807789
 24       0.000000028992
 25      -0.000000489117
 26      -0.000000201412
 27       0.013655020937
 28      -0.009655807373
 29      -0.000000028985
 30      -0.304711540134
 31      -0.081815185297
 32      -0.018922058133
 33      -0.006864481539
 34       0.000000000361
 Sym=     1a
 Ene= -8.24433757207091E-02
 Spin= Alpha
 Occup= 1.000000
  1      -0.138124624162
  2       0.254003665618
  3       2.704905898488
  4       0.063482754650
  5       0.089775464307
  6       0.000000026902
  7       0.185587055683
  8       0.262451464123
  9       0.000000066256
 10       0.000750045237
 11      -0.000000000179
 12      -0.000000000278
 13       0.000805642843
 14      -0.002278807830
 15      -0.010853939307
 16      -0.686264279623
 17      -0.000295722367
 18       0.003732131946
 19       0.000000000404
 20      -0.053196707078
 21      -1.332923025086
 22      -0.003091578051
 23      -0.004372050470
 24      -0.016231943767
 25      -0.053196693330
 26      -1.332922825332
 27      -0.003091576203
 28      -0.004372047860
 29       0.016231940016
 30      -0.010853759046
 31      -0.686262370401
 32       0.003617275921
 33       0.000965144501
 34       0.000000000406
 Sym=     1a
 Ene= 1.69522644552735E-01
 Spin= Alpha
 Occup= 0.000000
  1      -0.000000009144
  2       0.000000004927
  3       0.000000275972
  4      -0.000000012051
  5      -0.000000016916
  6      -0.357579148372
  7      -0.000000038132
  8      -0.000000053589
  9      -1.211291574038
 10       0.000000000391
 11       0.005615562877
 12       0.007941398088
 13      -0.000000000086
 14       0.000000000236
 15      -0.000000000626
 16      -0.000000164324
 17      -0.000000000050
 18      -0.000000000331
 19      -0.002343929605
 20       0.054402523659
 21       1.741076758108
 22       0.005426104909
 23       0.007673478583
 24       0.008782131753
 25      -0.054402517033
 26      -1.741076820311
 27      -0.005426103966
 28      -0.007673477251
 29       0.008782129183
 30      -0.000000000672
 31      -0.000000165010
 32      -0.000000000295
 33      -0.000000000157
 34      -0.002343939545
 Sym=     1a
 Ene= 1.98917061639199E-01
 Spin= Alpha
 Occup= 0.000000
  1      -0.028611270210
  2       0.011158380199
  3       0.950669578912
  4      -0.183521704307
  5      -0.259532335566
  6       0.000000024707
  7      -0.713007497782
  8      -1.008319320645
  9       0.000000096434
 10       0.013851679656
 11      -0.000000000700
 12      -0.000000000996
 13      -0.000726861478
 14       0.002056048314
 15      -0.036474399912
 16      -1.546661534333
 17       0.000779680806
 18      -0.004095577568
 19       0.000000000298
 20       0.046813871876
 21       0.870730571763
 22      -0.002573481600
 23      -0.003639357791
 24       0.010570131799
 25       0.046813881733
 26       0.870730840759
 27      -0.002573481100
 28      -0.003639357083
 29      -0.010570131411
 30      -0.036474349660
 31      -1.546660325134
 32      -0.004121260103
 33      -0.000630017088
 34       0.000000000300
 Sym=     1a
 Ene= 2.11914595386186E-01
 Spin= Alpha
 Occup= 0.000000
  1      -0.000000082394
  2       0.000000048717
  3       0.000002219130
  4      -0.260487819901
  5       0.184197456430
  6       0.000000000057
  7      -1.043614900309
  8       0.737966049410
  9       0.000000000322
 10       0.000000008972
 11      -0.000000000800
 12       0.000000000563
 13      -0.011185175653
 14      -0.003954245547
 15       0.063292228088
 16       1.792427741464
 17      -0.003240892441
 18       0.003741973921
 19      -0.000000000353
 20       0.000000000290
 21      -0.000000526556
 22      -0.006985861979
 23       0.004939877358
 24      -0.000000000593
 25       0.000000000299
 26      -0.000000525769
 27      -0.006985860971
 28       0.004939876648
 29       0.000000000593
 30      -0.063292266028
 31      -1.792429757236
 32      -0.004608231206
 33       0.001808333579
 34       0.000000000359
 Sym=     1a
 Ene= 4.67170084096169E-01
 Spin= Alpha
 Occup= 0.000000
  1      -0.000000004027
  2       0.000000014994
  3      -0.000000009740
  4      -0.000000014434
  5      -0.000000020328
  6      -0.235824729091
  7       0.000000084223
  8       0.000000118827
  9       1.342046264291
 10      -0.000000009168
 11      -0.051690908736
 12      -0.073100037987
 13       0.000000001697
 14      -0.000000004819
 15       0.000000049387
 16       0.000000005731
 17       0.000000002387
 18       0.000000001429
 19       0.028821729312
 20      -0.705829806496
 21      -0.056627578328
 22      -0.009626143860
 23      -0.013613056985
 24       0.016090604639
 25       0.705829681058
 26       0.056627587812
 27       0.009626147806
 28       0.013613062589
 29       0.016090608562
 30       0.000000049460
 31       0.000000005927
 32       0.000000000554
 33       0.000000002728
 34       0.028821772842
 Sym=     1a
 Ene= 4.92120043130110E-01
 Spin= Alpha
 Occup= 0.000000
  1       0.021014495864
  2      -0.078247919623
  3       0.056083291137
  4       0.148769188221
  5       0.210386580189
  6      -0.000000031312
  7      -0.736241306472
  8      -1.041177566866
  9       0.000000152002
 10       0.081105154389
 11      -0.000000005651
 12      -0.000000007987
 13      -0.013980939540
 14       0.039547406714
 15      -0.457322914041
 16      -0.020854982141
 17      -0.020838171563
 18      -0.011056820038
 19       0.000000003252
 20       0.533133962155
 21      -0.038535550850
 22      -0.019874987653
 23      -0.028106781898
 24       0.025818552334
 25       0.533134119776
 26      -0.038535537587
 27      -0.019874984349
 28      -0.028106777210
 29      -0.025818548246
 30      -0.457321484598
 31      -0.020855062945
 32      -0.003478973517
 33      -0.023331973249
 34       0.000000003263
 Sym=     1a
 Ene= 5.15330450938468E-01
 Spin= Alpha
 Occup= 0.000000
  1       0.000000047856
  2      -0.000000395807
  3       0.000001062230
  4       0.267865121566
  5      -0.189413869692
  6       0.000000000030
  7      -1.116444879565
  8       0.789464482945
  9      -0.000000000046
 10       0.000000097011
 11      -0.000000000258
 12       0.000000000160
 13      -0.075860284419
 14      -0.026818525400
 15       0.685475529224
 16       0.085844064139
 17      -0.015830425369
 18      -0.001014742490
 19      -0.000000000176
 20       0.000000468057
 21      -0.000000095574
 22      -0.035737672709
 23       0.025270940073
 24       0.000000039727
 25       0.000000468159
 26      -0.000000095811
 27      -0.035737670411
 28       0.025270938458
 29      -0.000000039729
 30      -0.685476738277
 31      -0.085844605390
 32      -0.004319725999
 33       0.015263363775
 34       0.000000000202
 Sym=     1a
 Ene= 7.54534924889288E-01
 Spin= Alpha
 Occup= 0.000000
  1       0.291515324057
  2      -1.987775653182
  3       5.462019328944
  4      -0.163472280889
  5      -0.231178346046
  6      -0.000000089178
  7       0.348445912842
  8       0.492762743598
  9       0.000000178113
 10       0.028877215204
 11       0.000000007702
 12       0.000000010929
 13      -0.006685104356
 14       0.018909754847
 15       0.099179730035
 16      -0.930785927223
 17       0.005230565166
 18      -0.060927327129
 19      -0.000000007075
 20       0.262464174629
 21      -1.699579872587
 22       0.034699693957
 23       0.049071502042
 24       0.125555725494
 25       0.262464084163
 26      -1.699579530078
 27       0.034699679404
 28       0.049071481485
 29      -0.125555702804
 30       0.099179721971
 31      -0.930785083109
 32      -0.059186669742
 33      -0.015376213922
 34      -0.000000007084
 Sym=     1a
 Ene= 7.97215072518130E-01
 Spin= Alpha
 Occup= 0.000000
  1      -0.000000034743
  2       0.000000255349
  3      -0.000000732304
  4      -0.000000007721
  5      -0.000000010287
  6      -0.907203625377
  7       0.000000011194
  8       0.000000014696
  9       1.667967894131
 10       0.000000001654
 11       0.094945286931
 12       0.134269357510
 13      -0.000000000605
 14       0.000000001474
 15      -0.000000003227
 16       0.000000175415
 17      -0.000000004907
 18       0.000000009926
 19      -0.076251319550
 20       0.452250029696
 21      -1.578311934980
 22       0.077057904010
 23       0.108973468910
 24       0.118678692742
 25      -0.452250017461
 26       1.578312233568
 27      -0.077057909450
 28      -0.108973476492
 29       0.118678707302
 30      -0.000000003751
 31       0.000000176822
 32       0.000000011135
 33      -0.000000001276
 34      -0.076251305639
 Sym=     1a
 Ene= 8.28783374792921E-01
 Spin= Alpha
 Occup= 0.000000
  1      -0.096354814449
  2       0.855320797849
  3      -2.708169811894
  4      -0.482742983004
  5      -0.682682770069
  6       0.000000046027
  7       0.881466625083
  8       1.246547805224
  9      -0.000000085231
 10       0.152206597202
 11      -0.000000005797
 12      -0.000000008206
 13      -0.024113707580
 14       0.068208754293
 15      -0.154947355361
 16       1.545453668955
 17      -0.094852362558
 18       0.101011999823
 19       0.000000004388
 20       0.414578836903
 21      -0.455699856198
 22      -0.000049812390
 23      -0.000070325306
 24       0.124695680268
 25       0.414578884361
 26      -0.455700015866
 27      -0.000049803811
 28      -0.000070313159
 29      -0.124695692583
 30      -0.154948204282
 31       1.545455874059
 32       0.126851393118
 33      -0.055760015844
 34       0.000000004406
 Sym=     1a
 Ene= 8.44005488397198E-01
 Spin= Alpha
 Occup= 0.000000
  1      -0.000000009554
  2      -0.000000364696
  3       0.000002040931
  4      -0.720461526808
  5       0.509457321195
  6       0.000000000413
  7       1.300636124583
  8      -0.919713950773
  9      -0.000000000768
 10      -0.000000102925
 11      -0.000000002340
 12       0.000000001559
 13      -0.178728430126
 14      -0.063185176748
 15       0.481199288791
 16      -1.526327052165
 17       0.012438870674
 18      -0.179085928090
 19      -0.000000001218
 20      -0.000000532728
 21       0.000000412968
 22      -0.073761530222
 23       0.052158628403
 24      -0.000000107945
 25      -0.000000532405
 26       0.000000411624
 27      -0.073761527313
 28       0.052158626498
 29       0.000000107830
 30      -0.481199451839
 31       1.526324826176
 32       0.172991171599
 33       0.047963672494
 34       0.000000001309
 Sym=     1a
 Ene= 9.35123906630641E-01
 Spin= Alpha
 Occup= 0.000000
  1       0.010686564822
  2       0.739722681947
  3      -3.657292731089
  4       0.111671858542
  5       0.157923952087
  6       0.000000013792
  7      -0.193144362298
  8      -0.273139750045
  9      -0.000000022605
 10      -0.055462511399
 11      -0.000000002195
 12      -0.000000003075
 13       0.006976983312
 14      -0.019735597109
 15       0.842799176909
 16       0.257942058575
 17       0.053527075955
 18      -0.105935006840
 19       0.000000001364
 20       0.656035868945
 21       0.734183812711
 22       0.032043550754
 23       0.045315347372
 24       0.036195023605
 25       0.656035887287
 26       0.734183768016
 27       0.032043553227
 28       0.045315350852
 29      -0.036195027823
 30       0.842798622615
 31       0.257942347810
 32      -0.117718407207
 33       0.015157087127
 34       0.000000001360
 Sym=     1a
 Ene= 1.20042659195444E+00
 Spin= Alpha
 Occup= 0.000000
  1      -0.000000000018
  2       0.000000000034
  3       0.000000000102
  4       0.000000004248
  5      -0.000000003055
  6       0.000000071604
  7       0.000000001127
  8      -0.000000000869
  9      -0.000000061602
 10      -0.000000000259
 11      -0.308238836625
 12       0.217963527838
 13      -0.000000000083
 14       0.000000000440
 15      -0.000000005770
 16       0.000000003390
 17       0.000000000100
 18       0.000000001867
 19      -0.323415354101
 20      -0.000000005523
 21       0.000000044213
 22      -0.323406117752
 23       0.228688739784
 24       0.000000009524
 25       0.000000005586
 26      -0.000000044267
 27       0.323406112791
 28      -0.228688735236
 29       0.000000010094
 30       0.000000005634
 31      -0.000000003401
 32      -0.000000001698
 33      -0.000000001633
 34       0.323415239072
 Sym=     1a
 Ene= 1.21493564628077E+00
 Spin= Alpha
 Occup= 0.000000
  1      -0.003888925567
  2       0.006084762735
  3       0.029154165222
  4      -0.016505361356
  5      -0.023341578922
  6       0.000000002571
  7      -0.027540961951
  8      -0.038947703299
  9       0.000000001457
 10      -0.186807528499
 11       0.000000000424
 12      -0.000000000257
 13      -0.105903463091
 14       0.299563576488
 15      -0.043330397528
 16       0.002448438295
 17      -0.327235216903
 18      -0.104438527259
 19       0.000000001618
 20       0.030697008828
 21      -0.010616899667
 22       0.184252621910
 23       0.260565882020
 24      -0.213811948901
 25       0.030697015144
 26      -0.010616902668
 27       0.184252617027
 28       0.260565876995
 29       0.213811941491
 30      -0.043330397610
 31       0.002448363637
 32       0.010604443303
 33      -0.343333460824
 34       0.000000000737
 Sym=     1a
 Ene= 1.68497708028896E+00
 Spin= Alpha
 Occup= 0.000000
  1       0.000000000048
  2      -0.000000000202
  3       0.000000000153
  4      -0.000000000572
  5      -0.000000000799
  6       0.011309181770
  7      -0.000000006254
  8      -0.000000008872
  9       0.118944877995
 10       0.000000000899
 11       0.009344959471
 12       0.013215537738
 13       0.000000001335
 14      -0.000000003766
 15      -0.000000003057
 16      -0.000000001988
 17       0.000000005736
 18       0.000000003307
 19       0.309285535305
 20      -0.037321073849
 21      -0.039119647916
 22       0.309341505172
 23       0.437461868999
 24      -0.392920093121
 25       0.037321079533
 26       0.039119651953
 27      -0.309341502435
 28      -0.437461864999
 29      -0.392920092453
 30      -0.000000003028
 31      -0.000000001996
 32       0.000000001180
 33       0.000000006438
 34       0.309287490245
 Sym=     1a
 Ene= 1.71117533306139E+00
 Spin= Alpha
 Occup= 0.000000
  1      -0.000000000001
  2       0.000000000001
  3       0.000000000001
  4      -0.000000001657
  5       0.000000001153
  6       0.000000060254
  7      -0.000000023804
  8       0.000000016858
  9      -0.000000591311
 10      -0.000000000004
 11      -0.037043244755
 12       0.026194035587
 13       0.000000002664
 14       0.000000000942
 15       0.000000011612
 16       0.000000007497
 17      -0.000000063655
 18      -0.000000027981
 19      -0.534288918465
 20       0.000000228300
 21       0.000000169074
 22       0.407508884129
 23      -0.288161070059
 24       0.000000853002
 25      -0.000000228331
 26      -0.000000169056
 27      -0.407508786643
 28       0.288161001064
 29       0.000000853014
 30      -0.000000011571
 31      -0.000000007518
 32       0.000000005123
 33       0.000000069316
 34       0.534288080137
 Sym=     1a
 Ene= 1.73084882705864E+00
 Spin= Alpha
 Occup= 0.000000
  1       0.000000005203
  2      -0.000000042505
  3       0.000000104659
  4       0.007478302463
  5      -0.005288189756
  6       0.000000000009
  7       0.119423764947
  8      -0.084446990249
  9      -0.000000000023
 10       0.000000131166
 11      -0.000000002701
 12       0.000000001907
 13      -0.011951343018
 14      -0.004225047101
 15      -0.058906945435
 16      -0.037293532001
 17       0.543034073373
 18       0.222194454102
 19      -0.000000065538
 20      -0.000000153930
 21      -0.000000105958
 22      -0.359080644239
 23       0.253914744459
 24       0.000000058143
 25      -0.000000153964
 26      -0.000000105948
 27      -0.359080747939
 28       0.253914817867
 29      -0.000000058053
 30       0.058907221065
 31       0.037293665179
 32      -0.028490125579
 33      -0.586041799924
 34       0.000000065516
 Sym=     1a
 Ene= 1.93824055330289E+00
 Spin= Alpha
 Occup= 0.000000
  1       0.000000006065
  2      -0.000000030516
  3      -0.000000005260
  4      -0.000000039231
  5      -0.000000055616
  6      -0.213388305927
  7       0.000000201217
  8       0.000000285515
  9       0.897006684006
 10       0.000000111551
 11       0.207197740265
 12       0.293014227388
 13      -0.000000024183
 14       0.000000069026
 15       0.000000117198
 16       0.000000036332
 17      -0.000000103464
 18      -0.000000144372
 19      -0.469538844433
 20      -0.374179971312
 21      -0.122008933875
 22      -0.040894310007
 23      -0.057832151236
 24      -0.459466601706
 25       0.374179776362
 26       0.122008865885
 27       0.040894105211
 28       0.057831860781
 29      -0.459466574045
 30       0.000000116674
 31       0.000000036177
 32      -0.000000101174
 33      -0.000000146101
 34      -0.469538547145
 Sym=     1a
 Ene= 1.94296472790989E+00
 Spin= Alpha
 Occup= 0.000000
  1       0.012375642700
  2      -0.062320648193
  3      -0.012253176432
  4      -0.096101280431
  5      -0.135903591934
  6       0.000000076113
  7       0.536374954789
  8       0.758524509396
  9      -0.000000342144
 10       0.288106524093
 11      -0.000000077004
 12      -0.000000108895
 13      -0.063660051759
 14       0.180069447650
 15       0.305840890169
 16       0.099993208819
 17      -0.281409463862
 18      -0.383250893596
 19       0.000000183411
 20      -0.264157432057
 21      -0.095712746338
 22      -0.270327636095
 23      -0.382289347292
 24      -0.028524994847
 25      -0.264157717590
 26      -0.095712843928
 27      -0.270327669212
 28      -0.382289394186
 29       0.028525335660
 30       0.305843030441
 31       0.099994281780
 32      -0.267540707695
 33      -0.393056800959
 34       0.000000183365
 Sym=     1a
 Ene= 1.96162465046127E+00
 Spin= Alpha
 Occup= 0.000000
  1       0.000000040702
  2      -0.000000116323
  3      -0.000000669498
  4       0.093097194793
  5      -0.065831837309
  6       0.000000000120
  7      -0.788314551543
  8       0.557439802227
  9      -0.000000000552
 10       0.000000694647
 11      -0.000000000941
 12       0.000000000431
 13       0.290483218516
 14       0.102693794242
 15       0.409045483064
 16       0.174393896811
 17       0.462788986262
 18      -0.225206884256
 19       0.000000003347
 20      -0.000000538359
 21      -0.000000043410
 22       0.375933496735
 23      -0.265833573888
 24      -0.000000135234
 25      -0.000000538773
 26      -0.000000043602
 27       0.375933505367
 28      -0.265833580078
 29       0.000000135771
 30      -0.409043803947
 31      -0.174393278359
 32       0.366579928842
 33      -0.361263786491
 34      -0.000000002733
 Sym=     1a
 Ene= 2.34541615105686E+00
 Spin= Alpha
 Occup= 0.000000
  1      -0.000000003447
  2       0.000000020649
  3       0.000000007217
  4       0.000000047187
  5       0.000000066670
  6       0.621806538624
  7       0.000000059669
  8       0.000000084378
  9       0.779764224867
 10      -0.000000055429
 11      -0.250559718734
 12      -0.354335773181
 13       0.000000008318
 14      -0.000000023569
 15       0.000000010849
 16       0.000000049686
 17      -0.000000073394
 18       0.000000009669
 19      -0.631030551092
 20      -0.185609339347
 21      -0.552806895360
 22       0.303199129160
 23       0.428776954958
 24       0.165182507163
 25       0.185609294523
 26       0.552806787088
 27      -0.303199163393
 28      -0.428777003397
 29       0.165182350905
 30       0.000000010861
 31       0.000000049723
 32       0.000000033668
 33      -0.000000065987
 34      -0.631030662351
 Sym=     1a
 Ene= 2.35166797041843E+00
 Spin= Alpha
 Occup= 0.000000
  1      -0.014604993453
  2       0.086235043309
  3       0.018507378335
  4       0.344078495813
  5       0.486597339782
  6      -0.000000081768
  7       0.423710522153
  8       0.599212092098
  9      -0.000000099499
 10      -0.453005829325
 11       0.000000035957
 12       0.000000050853
 13       0.059606092041
 14      -0.168618987176
 15       0.085539579167
 16       0.370310090907
 17      -0.534114188677
 18       0.104216284515
 19       0.000000083313
 20      -0.133225520473
 21      -0.382425235111
 22      -0.132747923692
 23      -0.187737942006
 24       0.562546628547
 25      -0.133225565005
 26      -0.382425379004
 27      -0.132747845041
 28      -0.187737830774
 29      -0.562546677147
 30       0.085537414689
 31       0.370300565092
 32       0.276274243408
 33      -0.468842150784
 34       0.000000083310
 Sym=     1a
 Ene= 2.36457931607548E+00
 Spin= Alpha
 Occup= 0.000000
  1      -0.000000098432
  2       0.000000483633
  3       0.000000560261
  4       0.489305712527
  5      -0.345993518497
  6       0.000000000022
  7       0.553034054195
  8      -0.391055689404
  9      -0.000000000021
 10      -0.000004222497
 11       0.000000005232
 12      -0.000000003664
 13       0.479685565993
 14       0.169579418386
 15      -0.129627683675
 16      -0.519984996567
 17      -0.178263788912
 18      -0.543982057299
 19      -0.000000003644
 20      -0.000001357716
 21      -0.000003672033
 22      -0.452285731918
 23       0.319819938972
 24       0.000005287112
 25      -0.000001357703
 26      -0.000003672032
 27      -0.452285730428
 28       0.319819937899
 29      -0.000005287042
 30       0.129629371004
 31       0.519991922034
 32       0.453463852852
 33       0.349376207304
 34       0.000000003702
 Sym=     1a
 Ene= 2.75064538242686E+00
 Spin= Alpha
 Occup= 0.000000
  1       0.000000000035
  2      -0.000000000261
  3      -0.000000000204
  4       0.000000005288
  5      -0.000000003890
  6       0.000000203664
  7       0.000000002941
  8      -0.000000002194
  9       0.000000070112
 10      -0.000000000917
 11      -0.938375598342
 12       0.663549457912
 13      -0.000000000199
 14       0.000000001535
 15      -0.000000002631
 16      -0.000000002754
 17       0.000000000781
 18      -0.000000004107
 19       0.479153494233
 20      -0.000000109198
 21      -0.000000113268
 22       0.377408453402
 23      -0.266874986093
 24       0.000000154753
 25       0.000000109465
 26       0.000000113461
 27      -0.377408459264
 28       0.266874988611
 29       0.000000154273
 30       0.000000002697
 31       0.000000002774
 32       0.000000004257
 33       0.000000002173
 34      -0.479153373178
 Sym=     1a
 Ene= 2.76957948728542E+00
 Spin= Alpha
 Occup= 0.000000
  1      -0.012226300956
  2       0.087700817622
  3       0.057794080244
  4       0.044820084936
  5       0.063383635345
  6      -0.000000003409
  7       0.033365831953
  8       0.047185185115
  9      -0.000000001842
 10       0.592948301788
 11      -0.000000001004
 12       0.000000001672
 13       0.327992867628
 14      -0.927775990508
 15       0.003962297488
 16       0.012298491071
 17      -0.466633240336
 18      -0.162984617424
 19       0.000000002181
 20      -0.058282672575
 21      -0.042749653276
 22       0.232932760252
 23       0.329408163858
 24      -0.188742081909
 25      -0.058282674939
 26      -0.042749656086
 27       0.232932761907
 28       0.329408168665
 29       0.188742080103
 30       0.003962232944
 31       0.012298404656
 32       0.001868785860
 33      -0.494274287414
 34       0.000000000708
 Sym=     1a
 Ene= 2.88521629002547E+00
 Spin= Alpha
 Occup= 0.000000
  1      -0.318300665662
  2       2.128525524490
  3       0.963770579796
  4       0.062575466000
  5       0.088492002687
  6       0.000000012129
  7       0.030420603946
  8       0.043019664874
  9       0.000000006602