[Molden Format]
[Title]
 Molden file created by orca_2mkl for BaseName=04_ch4_qzvpp

[Atoms] AU
C    1   6         -2.5983732641         0.7761375085         0.0000000000 
H    2   1         -1.9243940669        -1.1302371127         0.0000000000 
H    3   1         -1.9243592771         1.7293119500         1.6509620715 
H    4   1         -1.9243592771         1.7293119500        -1.6509620715 
H    5   1         -4.6203802274         0.7761624151         0.0000000000 
[GTO]
  1 0
s   8 1.0 
    67025.0710290000         0.2107535794
    10039.9865380000         0.3944204850
     2284.9316911000         0.6814886693
      647.1412213000         1.1075026371
      211.0947233500         1.6902157449
       76.1776438620         2.3716464928
       29.6338391630         2.8799049310
       12.1877850810         2.7511958419
s   2 1.0 
       53.0260062990         1.2795470069
       15.2585027760         5.1103194100
s   1 1.0 
        5.2403957464         2.4685001408
s   1 1.0 
        2.2905022379         1.3269609194
s   1 1.0 
        0.6967328301         0.5435128276
s   1 1.0 
        0.2759933736         0.2713839026
s   1 1.0 
        0.1073988439         0.1337087402
p   5 1.0 
      105.1255508200         1.1978793681
       24.8844610660         1.5485209137
        7.8637230826         1.6674744875
        2.8407001835         1.5496517883
        1.1227137335         1.1575938834
p   1 1.0 
        0.4605072555         0.5407364982
p   1 1.0 
        0.1893753091         0.1780714443
p   1 1.0 
        0.0759837916         0.0568645084
d   1 1.0 
        1.8480000000         8.3502316859
d   1 1.0 
        0.6490000000         1.3378219059
d   1 1.0 
        0.2280000000         0.2144648217
f   1 1.0 
        1.4190000000        12.5302711484
f   1 1.0 
        0.4850000000         1.1192290943
g   1 1.0 
        1.0110000000         6.7847699297

  2 0
s   4 1.0 
      190.6916900000         0.1953955194
       28.6055320000         0.3636605440
        6.5095943000         0.6128365563
        1.8412455000         0.9148894972
s   1 1.0 
        0.5985372500         0.4849851938
s   1 1.0 
        0.2139762400         0.2242251153
s   1 1.0 
        0.0803162860         0.1075258304
p   1 1.0 
        2.2920000000         4.0198361784
p   1 1.0 
        0.8380000000         1.1428654696
p   1 1.0 
        0.2920000000         0.3059628180
d   1 1.0 
        2.0620000000        10.1152178423
d   1 1.0 
        0.6620000000         1.3850694971
f   1 1.0 
        1.3970000000        12.0973986675

  3 0
s   4 1.0 
      190.6916900000         0.1953955194
       28.6055320000         0.3636605440
        6.5095943000         0.6128365563
        1.8412455000         0.9148894972
s   1 1.0 
        0.5985372500         0.4849851938
s   1 1.0 
        0.2139762400         0.2242251153
s   1 1.0 
        0.0803162860         0.1075258304
p   1 1.0 
        2.2920000000         4.0198361784
p   1 1.0 
        0.8380000000         1.1428654696
p   1 1.0 
        0.2920000000         0.3059628180
d   1 1.0 
        2.0620000000        10.1152178423
d   1 1.0 
        0.6620000000         1.3850694971
f   1 1.0 
        1.3970000000        12.0973986675

  4 0
s   4 1.0 
      190.6916900000         0.1953955194
       28.6055320000         0.3636605440
        6.5095943000         0.6128365563
        1.8412455000         0.9148894972
s   1 1.0 
        0.5985372500         0.4849851938
s   1 1.0 
        0.2139762400         0.2242251153
s   1 1.0 
        0.0803162860         0.1075258304
p   1 1.0 
        2.2920000000         4.0198361784
p   1 1.0 
        0.8380000000         1.1428654696
p   1 1.0 
        0.2920000000         0.3059628180
d   1 1.0 
        2.0620000000        10.1152178423
d   1 1.0 
        0.6620000000         1.3850694971
f   1 1.0 
        1.3970000000        12.0973986675

  5 0
s   4 1.0 
      190.6916900000         0.1953955194
       28.6055320000         0.3636605440
        6.5095943000         0.6128365563
        1.8412455000         0.9148894972
s   1 1.0 
        0.5985372500         0.4849851938
s   1 1.0 
        0.2139762400         0.2242251153
s   1 1.0 
        0.0803162860         0.1075258304
p   1 1.0 
        2.2920000000         4.0198361784
p   1 1.0 
        0.8380000000         1.1428654696
p   1 1.0 
        0.2920000000         0.3059628180
d   1 1.0 
        2.0620000000        10.1152178423
d   1 1.0 
        0.6620000000         1.3850694971
f   1 1.0 
        1.3970000000        12.0973986675

[5D]
[7F]
[9G]
[MO]
 Sym=     1a
 Ene= -1.11962649079457E+01
 Spin= Alpha
 Occup= 2.000000
  1      -0.545943232793
  2       0.000427526035
  3      -0.370346231867
  4      -0.175619235412
  5      -0.013276153259
  6       0.004347095465
  7       0.000578335992
  8       0.000000000119
  9      -0.000000000238
 10      -0.000000000000
 11      -0.000000000964
 12       0.000000001542
 13       0.000000000000
 14      -0.000000000870
 15      -0.000000000942
 16       0.000000000004
 17      -0.000000000248
 18       0.000000000209
 19      -0.000000000002
 20      -0.000000000070
 21      -0.000000000000
 22      -0.000000000000
 23      -0.000000000113
 24       0.000000000088
 25       0.000000000172
 26       0.000000000000
 27       0.000000000000
 28       0.000000000570
 29       0.000000000086
 30      -0.000000000006
 31       0.000000000001
 32       0.000000000001
 33       0.000000000646
 34      -0.000000000414
 35       0.000000000000
 36      -0.000115253322
 37      -0.000162988699
 38       0.000000000000
 39      -0.000000000000
 40      -0.000148787344
 41       0.000042089364
 42       0.000000000000
 43      -0.000065389841
 44      -0.000092472968
 45      -0.000000000000
 46       0.000000000000
 47      -0.000084415556
 48       0.000023879743
 49      -0.000015589466
 50       0.000000000000
 51       0.000000000000
 52       0.000023237588
 53      -0.000065731401
 54      -0.000000000000
 55      -0.000000000000
 56       0.000030743916
 57       0.000024842507
 58      -0.000147220862
 59      -0.000220390987
 60      -0.001062822148
 61       0.000021587328
 62       0.000019971750
 63      -0.000056490829
 64      -0.000000000000
 65       0.000004099909
 66      -0.000011596941
 67       0.000000000000
 68       0.000146652155
 69      -0.000414811318
 70      -0.000000000000
 71       0.000029611138
 72       0.000000000000
 73       0.000000000000
 74       0.000039891391
 75       0.000032235571
 76       0.000022192094
 77      -0.000000000000
 78       0.000000000000
 79       0.000029896757
 80       0.000024158930
 81      -0.000000000000
 82      -0.000010814870
 83       0.000035893753
 84      -0.000000000000
 85      -0.000000000000
 86       0.000041418813
 87      -0.000024933663
 88      -0.000147220726
 89      -0.000220392546
 90      -0.001062820998
 91       0.000021586947
 92       0.000019972715
 93       0.000028244913
 94       0.000048922132
 95       0.000004100576
 96       0.000005798847
 97       0.000010043989
 98       0.000146659784
 99       0.000207402738
100       0.000359235333
101      -0.000029611143
102      -0.000027918205
103      -0.000039481173
104       0.000005698266
105      -0.000016118423
106      -0.000022192241
107      -0.000020923371
108      -0.000029589307
109       0.000004270526
110      -0.000012079992
111       0.000008043574
112       0.000029402967
113       0.000041580939
114      -0.000010383385
115       0.000029371087
116       0.000010267118
117      -0.000002904392
118      -0.000147220726
119      -0.000220392545
120      -0.001062820988
121       0.000021586942
122       0.000019972715
123       0.000028244913
124      -0.000048922132
125       0.000004100576
126       0.000005798847
127      -0.000010043989
128       0.000146659784
129       0.000207402737
130      -0.000359235331
131      -0.000029611143
132       0.000027918205
133       0.000039481173
134       0.000005698266
135      -0.000016118423
136      -0.000022192241
137       0.000020923371
138       0.000029589307
139       0.000004270525
140      -0.000012079992
141      -0.000008043574
142       0.000029402967
143       0.000041580939
144       0.000010383385
145      -0.000029371087
146       0.000010267118
147      -0.000002904392
148      -0.000147220698
149      -0.000220393030
150      -0.001062823287
151       0.000021586795
152      -0.000059917318
153       0.000000000810
154      -0.000000000000
155      -0.000012301324
156      -0.000000000078
157       0.000000000000
158      -0.000439972421
159       0.000000005238
160      -0.000000000000
161       0.000029611209
162       0.000000000000
163       0.000000000000
164      -0.000051288084
165       0.000000001278
166       0.000022192187
167       0.000000000000
168      -0.000000000000
169      -0.000038438073
170       0.000000000747
171      -0.000000000000
172       0.000037445985
173       0.000001767378
174       0.000000000000
175       0.000000000000
176       0.000048342518
177      -0.000000458168
 Sym=     1a
 Ene= -9.50610496909840E-01
 Spin= Alpha
 Occup= 2.000000
  1      -0.099469547946
  2      -0.013227847855
  3      -0.120180666545
  4      -0.080319906658
  5       0.227760906806
  6       0.409701634574
  7       0.097509422847
  8       0.000000004525
  9      -0.000000016130
 10       0.000000000041
 11       0.000000000256
 12      -0.000000012417
 13      -0.000000000002
 14      -0.000000010585
 15      -0.000000022215
 16      -0.000000000492
 17      -0.000000001868
 18       0.000000014487
 19       0.000000000218
 20       0.000000001264
 21       0.000000000002
 22       0.000000000002
 23       0.000000001015
 24      -0.000000001441
 25       0.000000007312
 26      -0.000000000002
 27      -0.000000000003
 28       0.000000005493
 29      -0.000000005212
 30      -0.000000001721
 31      -0.000000000065
 32      -0.000000000092
 33       0.000000003747
 34      -0.000000008502
 35       0.000000000000
 36       0.002037411869
 37       0.002881259656
 38      -0.000000000000
 39       0.000000000001
 40       0.002630213338
 41      -0.000744041190
 42      -0.000000000000
 43       0.004147795053
 44       0.005865713512
 45       0.000000000001
 46      -0.000000000002
 47       0.005354629339
 48      -0.001514731954
 49       0.000240217832
 50      -0.000000000000
 51      -0.000000000001
 52      -0.000358069873
 53       0.001012853871
 54      -0.000000000000
 55       0.000000000000
 56      -0.000473733780
 57      -0.000382796169
 58       0.048627329154
 59       0.079159406592
 60       0.059780241261
 61       0.004843262639
 62      -0.001251770699
 63       0.003540678389
 64      -0.000000000000
 65      -0.002389146598
 66       0.006757794607
 67       0.000000000002
 68      -0.000779044878
 69       0.002203551003
 70       0.000000000019
 71      -0.000355563170
 72      -0.000000000000
 73      -0.000000000000
 74      -0.000479006619
 75      -0.000387076368
 76      -0.000189016505
 77       0.000000000001
 78       0.000000000005
 79      -0.000254639000
 80      -0.000205768675
 81      -0.000000000000
 82      -0.000044469154
 83       0.000129358734
 84      -0.000000000000
 85      -0.000000000000
 86       0.000150583819
 87      -0.000092236491
 88       0.048627324267
 89       0.079159396864
 90       0.059780251637
 91       0.004843243192
 92      -0.001251835134
 93      -0.001770315329
 94      -0.003066304808
 95      -0.002389270886
 96      -0.003378851273
 97      -0.005852393377
 98      -0.000779081128
 99      -0.001101760615
100      -0.001908326107
101       0.000355563209
102       0.000335233892
103       0.000474079861
104      -0.000068423295
105       0.000193545549
106       0.000189015926
107       0.000178208626
108       0.000252019581
109      -0.000036373983
110       0.000102888010
111       0.000030209112
112       0.000106576650
113       0.000150717910
114      -0.000038996835
115       0.000110308906
116       0.000033587568
117      -0.000009501500
118       0.048627324224
119       0.079159396777
120       0.059780250460
121       0.004843243740
122      -0.001251835134
123      -0.001770315329
124       0.003066304808
125      -0.002389270881
126      -0.003378851266
127       0.005852393366
128      -0.000779081034
129      -0.001101760483
130       0.001908325915
131       0.000355563209
132      -0.000335233893
133      -0.000474079862
134      -0.000068423295
135       0.000193545549
136       0.000189015920
137      -0.000178208615
138      -0.000252019565
139      -0.000036373981
140       0.000102888005
141      -0.000030209112
142       0.000106576650
143       0.000150717911
144       0.000038996835
145      -0.000110308907
146       0.000033587568
147      -0.000009501500
148       0.048627324416
149       0.079159396985
150       0.059780220478
151       0.004843250739
152       0.003755440114
153      -0.000000046167
154      -0.000000000000
155       0.007167689395
156      -0.000000089129
157       0.000000000002
158       0.002337199701
159      -0.000000029928
160       0.000000000019
161      -0.000355562990
162      -0.000000000000
163      -0.000000000000
164       0.000615853278
165      -0.000000015220
166      -0.000189015726
167       0.000000000004
168       0.000000000003
169       0.000327384558
170      -0.000000008712
171      -0.000000000000
172       0.000136783743
173       0.000001190290
174       0.000000000000
175      -0.000000000000
176       0.000176587096
177      -0.000000314111
 Sym=     1a
 Ene= -5.49900773343514E-01
 Spin= Alpha
 Occup= 2.000000
  1       0.000000000022
  2       0.000000000003
  3       0.000000000027
  4       0.000000000018
  5      -0.000000000052
  6      -0.000000000088
  7      -0.000000000016
  8       0.000177958255
  9       0.000066241484
 10       0.224202680282
 11       0.000179548178
 12       0.000066835312
 13       0.226208436516
 14       0.000130768241
 15       0.000048679685
 16       0.164747080709
 17       0.000031531566
 18       0.000011740627
 19       0.039731787564
 20       0.000004916487
 21       0.004685776980
 22       0.006626513794
 23      -0.000004599864
 24       0.000001384522
 25       0.000013160569
 26       0.012542996599
 27       0.017738004317
 28      -0.000012311777
 29       0.000003706565
 30       0.000009800194
 31       0.009339863913
 32       0.013208206331
 33      -0.000009166781
 34       0.000002760614
 35       0.000463169798
 36      -0.000000205294
 37       0.000001117148
 38      -0.000597904079
 39       0.001691263058
 40      -0.000001081050
 41      -0.000000057607
 42       0.000192675360
 43      -0.000000085036
 44       0.000000464391
 45      -0.000248718854
 46       0.000703538515
 47      -0.000000449577
 48      -0.000000023784
 49      -0.000000297122
 50       0.000387747021
 51       0.000548342585
 52       0.000000167955
 53       0.000000341248
 54       0.000341950490
 55      -0.000096731760
 56       0.000000424263
 57       0.000000034311
 58      -0.000001408196
 59      -0.000002693921
 60      -0.000003117867
 61      -0.000000929806
 62       0.000001516846
 63       0.000000459505
 64       0.001869652849
 65       0.000005165653
 66       0.000001630980
 67       0.006393076780
 68       0.000007882928
 69       0.000002568354
 70       0.009787732245
 71       0.000000070480
 72      -0.000214665405
 73       0.000842479070
 74      -0.000000469198
 75       0.000000563550
 76       0.000000163866
 77      -0.000579672050
 78       0.002263818104
 79      -0.000001292100
 80       0.000001489898
 81      -0.000335761291
 82      -0.000000122503
 83       0.000000000843
 84      -0.000374251366
 85      -0.000226525317
 86       0.000000211867
 87       0.000000397723
 88       0.082244743595
 89       0.157402973778
 90       0.182515726429
 91       0.054416640890
 92      -0.001915438925
 93      -0.002710314140
 94      -0.002825750388
 95      -0.005332966527
 96      -0.007547042006
 97      -0.006682180405
 98      -0.006698091035
 99      -0.009480369987
100      -0.006637923680
101       0.000337027256
102       0.000822684507
103       0.001163968006
104      -0.000211995450
105       0.000598853245
106      -0.000456812927
107       0.000925771861
108       0.001310676802
109      -0.000307983375
110       0.000869010049
111       0.000258488424
112      -0.000076244419
113      -0.000108051412
114       0.000069936562
115      -0.000197212823
116      -0.000125964703
117       0.000035528658
118      -0.082163423097
119      -0.157247339545
120      -0.182335267249
121      -0.054362833952
122       0.001916511555
123       0.002708738530
124      -0.002821107752
125       0.005337837440
126       0.007543355445
127      -0.006669251992
128       0.006706998275
129       0.009476777213
130      -0.006621683787
131      -0.000335444499
132       0.000822708695
133       0.001162907724
134       0.000211474038
135      -0.000598994050
136       0.000459718731
137       0.000927107916
138       0.001309621844
139       0.000306844049
140      -0.000870124047
141       0.000259060762
142       0.000076299978
143       0.000107673723
144       0.000069611078
145      -0.000197519251
146       0.000125966126
147      -0.000035738461
148      -0.000079912348
149      -0.000152940382
150      -0.000177341384
151      -0.000052877132
152      -0.000004103516
153       0.000000552465
154       0.001869652330
155      -0.000010486055
156       0.000001888988
157       0.006393076582
158      -0.000011778220
159       0.000002891868
160       0.009787731391
161       0.000000756439
162       0.000865853847
163       0.000078416720
164      -0.000001263826
165       0.000000255860
166       0.000000708325
167       0.002327577378
168       0.000208029064
169      -0.000001103962
170       0.000000687770
171      -0.000335761210
172       0.000000135272
173       0.000000005381
174       0.000433467323
175       0.000059024264
176       0.000000146131
177      -0.000000168729
 Sym=     1a
 Ene= -5.49900736341641E-01
 Spin= Alpha
 Occup= 2.000000
  1       0.000000005248
  2       0.000000000772
  3       0.000000006548
  4       0.000000004048
  5      -0.000000011773
  6      -0.000000032119
  7      -0.000000003955
  8       0.206986673954
  9      -0.086159010611
 10      -0.000138837220
 11       0.208838408625
 12      -0.086929804255
 13      -0.000140076665
 14       0.152096558800
 15      -0.063310746069
 16      -0.000102017433
 17       0.036680878681
 18      -0.015268643473
 19      -0.000024599385
 20       0.001541056476
 21      -0.000002901697
 22      -0.000004103510
 23      -0.007762141073
 24      -0.001800426068
 25       0.004125134174
 26      -0.000007766560
 27      -0.000010983282
 28      -0.020777874460
 29      -0.004819420596
 30       0.003071697672
 31      -0.000005782406
 32      -0.000008177338
 33      -0.015471771705
 34      -0.003588672126
 35      -0.000000286823
 36      -0.001212060974
 37       0.001161739541
 38       0.000000370259
 39      -0.000001047334
 40      -0.000503502755
 41      -0.000600118126
 42      -0.000000119182
 43      -0.000504196632
 44       0.000483263421
 45       0.000000153849
 46      -0.000000435185
 47      -0.000209450470
 48      -0.000249640386
 49      -0.000093128757
 50      -0.000000240103
 51      -0.000000339547
 52       0.000496435946
 53       0.000263851676
 54      -0.000000211744
 55       0.000000059899
 56       0.000393886911
 57      -0.000312134529
 58       0.067459083917
 59       0.129105649140
 60       0.149703750733
 61       0.044633732524
 62       0.000153861937
 63       0.003728603550
 64      -0.000001157770
 65       0.001524004122
 66       0.009926993256
 67      -0.000003958997
 68       0.003536133038
 69       0.011795682165
 70      -0.000006060948
 71      -0.000571186138
 72       0.000000132943
 73      -0.000000521694
 74      -0.001264030228
 75      -0.000195071564
 76      -0.000419052466
 77       0.000000358886
 78      -0.000001401771
 79      -0.001890759117
 80       0.000693544555
 81       0.000000207901
 82      -0.000109874763
 83      -0.000110840177
 84       0.000000231718
 85       0.000000140283
 86       0.000065578335
 87       0.000410555052
 88       0.012693850582
 89       0.024293952057
 90       0.028169894749
 91       0.008398834260
 92       0.001430223994
 93      -0.001136892095
 94      -0.000725857281
 95       0.005078279744
 96      -0.003621920388
 97      -0.002022025609
 98       0.008001153460
 99      -0.005225001682
100      -0.002541229011
101       0.000247844928
102      -0.000450553417
103       0.000481005165
104      -0.000520763761
105      -0.000177698918
106       0.000455699533
107      -0.001410689240
108       0.001013579179
109      -0.001357200516
110      -0.000591876180
111      -0.000089858842
112       0.000194785652
113      -0.000190669410
114       0.000384564152
115       0.000166082367
116      -0.000047154151
117      -0.000200651098
118       0.012795660083
119       0.024488801115
120       0.028395839652
121       0.008466199401
122       0.001427851110
123      -0.001140247772
124       0.000729353999
125       0.005071671328
126      -0.003631265852
127       0.002030294588
128       0.007992851583
129      -0.005236741993
130       0.002549442133
131       0.000248261377
132       0.000449534503
133      -0.000482446088
134      -0.000521026001
135      -0.000176957135
136       0.000455132618
137       0.001409541341
138      -0.001015202511
139      -0.001357581320
140      -0.000590799018
141       0.000089538423
142       0.000194691173
143      -0.000190803020
144      -0.000384650601
145      -0.000165837834
146      -0.000047310103
147      -0.000200606982
148      -0.092948591740
149      -0.177888392689
150      -0.206269482541
151      -0.061498783868
152      -0.004773010719
153      -0.000718409960
154      -0.000001157769
155      -0.012195827332
156      -0.002456577563
157      -0.000003958997
158      -0.013699255210
159      -0.003761053864
160      -0.000006060947
161       0.000830378725
162      -0.000000536174
163      -0.000000048545
164      -0.001498542358
165      -0.000332692536
166       0.000692444983
167      -0.000001441234
168      -0.000000128860
169      -0.001359275907
170      -0.000894405776
171       0.000000207901
172       0.000123328149
173       0.000106111021
174      -0.000000268400
175      -0.000000036522
176       0.000196267059
177       0.000190203285
 Sym=     1a
 Ene= -5.49900630927024E-01
 Spin= Alpha
 Occup= 2.000000
  1      -0.000000006452
  2      -0.000000000862
  3      -0.000000007958
  4      -0.000000005244
  5       0.000000012743
  6       0.000000054689
  7       0.000000022056
  8       0.086158942611
  9       0.206986716247
 10      -0.000129542495
 11       0.086929739790
 12       0.208838461756
 13      -0.000130701179
 14       0.063310721396
 15       0.152096616762
 16      -0.000095188902
 17       0.015268596347
 18       0.036680954446
 19      -0.000022958540
 20       0.006857521392
 21      -0.000002707381
 22      -0.000003828714
 23       0.000358068544
 24       0.004325904892
 25       0.018356370786
 26      -0.000007247268
 27      -0.000010248913
 28       0.000958486630
 29       0.011579682443
 30       0.013668655689
 31      -0.000005396260
 32      -0.000007631260
 33       0.000713727097
 34       0.008622547993
 35      -0.000000267615
 36       0.000943747501
 37       0.000688358106
 38       0.000000345463
 39      -0.000000977195
 40      -0.001331360095
 41       0.000543487635
 42      -0.000000111326
 43       0.000392585849
 44       0.000286347743
 45       0.000000143708
 46      -0.000000406499
 47      -0.000553826883
 48       0.000226081299
 49      -0.000414412285
 50      -0.000000224040
 51      -0.000000316832
 52      -0.000241346012
 53       0.000307820631
 54      -0.000000197579
 55       0.000000055892
 56       0.000312134541
 57       0.000393886907
 58      -0.074736504665
 59      -0.143033441111
 60      -0.165853624082
 61      -0.049448883136
 62       0.002460323728
 63      -0.003200754152
 64      -0.000001080263
 65       0.007307272381
 66      -0.007817572854
 67      -0.000003693843
 68       0.009854687557
 69      -0.008199122786
 70      -0.000005655165
 71       0.000734172113
 72       0.000000124033
 73      -0.000000486774
 74       0.000542673807
 75       0.001184426498
 76       0.000733172818
 77       0.000000334933
 78      -0.000001308023
 79      -0.000209368320
 80       0.001835935381
 81       0.000000194006
 82      -0.000094365824
 83       0.000120278898
 84       0.000000216244
 85       0.000000130890
 86       0.000296414216
 87       0.000248338624
 88       0.056665173568
 89       0.108447871499
 90       0.125750121442
 91       0.037492111707
 92      -0.000602236295
 93      -0.000141652094
 94      -0.003236128773
 95      -0.001221017832
 96       0.000701089933
 97      -0.009012310954
 98      -0.000858888404
 99       0.002502354499
100      -0.011322630033
101       0.001103612717
102       0.000460931552
103       0.000400557576
104       0.000107159973
105       0.000067849448
106       0.002026812173
107       0.000354392602
108      -0.000174923276
109       0.000468960547
110      -0.000330783598
111      -0.000399298084
112      -0.000160581927
113      -0.000122339648
114      -0.000130529214
115       0.000087442503
116       0.000051902469
117       0.000033406720
118       0.056760167242
119       0.108629673535
120       0.125960931656
121       0.037554958656
122      -0.000604450363
123      -0.000144783176
124       0.003239391490
125      -0.001227183309
126       0.000692370861
127       0.009020025288
128      -0.000866633981
129       0.002491400894
130       0.011330292095
131       0.001104001267
132      -0.000461882243
133      -0.000401902021
134       0.000106915296
135       0.000068541554
136       0.002026282608
137      -0.000355463189
138       0.000173409277
139       0.000468605302
140      -0.000329778732
141       0.000398999043
142      -0.000160670077
143      -0.000122464307
144       0.000130448581
145      -0.000087214419
146       0.000051756891
147       0.000033447902
148      -0.038688839644
149      -0.074044110522
150      -0.085857470755
151      -0.025598163635
152      -0.001986688595
153       0.001726120119
154      -0.000001080263
155      -0.005076293606
156       0.005902261166
157      -0.000003693843
158      -0.005702043638
159       0.009036272825
160      -0.000005655163
161       0.000419205070
162      -0.000000500280
163      -0.000000045306
164      -0.000581253759
165       0.000799384617
166       0.000483391469
167      -0.000001344863
168      -0.000000120197
169      -0.000453040499
170       0.002148867769
171       0.000000194005
172       0.000101884945
173      -0.000104307339
174      -0.000000250461
175      -0.000000034102
176       0.000042514631
177      -0.000495866905
 Sym=     1a
 Ene= 1.09242241564851E-01
 Spin= Alpha
 Occup= 0.000000
  1       0.034395656002
  2       0.005847326290
  3       0.040560087738
  4       0.036493926297
  5       0.001583545771
  6      -1.289832926739
  7      -4.981801008333
  8      -0.000000002468
  9       0.000000006152
 10      -0.000000000094
 11      -0.000000004351
 12      -0.000000004195
 13       0.000000000261
 14      -0.000000066659
 15       0.000000229504
 16       0.000000000703
 17      -0.000000088505
 18       0.000000332467
 19      -0.000000000077
 20      -0.000000001071
 21       0.000000000000
 22       0.000000000000
 23      -0.000000000629
 24       0.000000001920
 25      -0.000000006445
 26       0.000000000047
 27       0.000000000066
 28      -0.000000005384
 29      -0.000000009204
 30      -0.000000163408
 31       0.000000000170
 32       0.000000000241
 33      -0.000000116153
 34       0.000000159861
 35       0.000000000002
 36       0.000411738288
 37       0.000582271073
 38      -0.000000000002
 39       0.000000000007
 40       0.000531537771
 41      -0.000150362849
 42      -0.000000000006
 43      -0.032711631591
 44      -0.046260027874
 45       0.000000000007
 46       0.000000000014
 47      -0.042229361472
 48       0.011945949913
 49      -0.001232733686
 50       0.000000000004
 51       0.000000000003
 52       0.001837523433
 53      -0.005197706294
 54       0.000000000003
 55      -0.000000000001
 56       0.002431079328
 57       0.001964410491
 58      -0.006766520584
 59       0.074886209958
 60       0.747625708985
 61       1.148434973300
 62      -0.000610903466
 63       0.001727964828
 64      -0.000000000001
 65       0.001631973982
 66      -0.004616114728
 67       0.000000000003
 68      -0.104862019394
 69       0.296606110751
 70      -0.000000000029
 71       0.000633956724
 72       0.000000000001
 73      -0.000000000000
 74       0.000854052484
 75       0.000690143173
 76      -0.010710713357
 77      -0.000000000006
 78      -0.000000000007
 79      -0.014429223689
 80      -0.011660001285
 81       0.000000000001
 82       0.000040117115
 83      -0.001030456907
 84       0.000000000001
 85       0.000000000000
 86      -0.001124445122
 87       0.000598802392
 88      -0.006766520820
 89       0.074886210325
 90       0.747625754924
 91       1.148434552791
 92      -0.000610934771
 93      -0.000863972238
 94      -0.001496452673
 95       0.001632057831
 96       0.002308034658
 97       0.003997636977
 98      -0.104867475479
 99      -0.148301102363
100      -0.256867370277
101      -0.000633956402
102      -0.000597710074
103      -0.000845268277
104       0.000121996239
105      -0.000345086087
106       0.010710734426
107       0.010098337321
108       0.014280822627
109      -0.002061124626
110       0.005830223564
111      -0.000170841412
112      -0.000814076620
113      -0.001151247242
114       0.000220534600
115      -0.000623818071