[Molden Format]
[Title]
 Molden file created by orca_2mkl for BaseName=orca

[Atoms] AU
Y    1  39          0.0000000000         0.0000000000         0.0000000000 
[GTO]
  1 0
s   3 1.0 
        5.1329580000        -3.3617862685
        4.2401920000         4.0883861946
        1.2982800000         0.3820822459
s   1 1.0 
        0.8290495435         0.6192206852
s   1 1.0 
        0.3475275891         0.3225908597
s   1 1.0 
        0.0684188786         0.0953437120
s   1 1.0 
        0.0273239929         0.0478980921
p   4 1.0 
        2.7279200000        -1.9964652983
        1.9790500000         1.1688628554
        0.7998088680         0.5792572211
        0.3840939735         0.2051821038
p   1 1.0 
        0.1617358226         0.1462001658
p   1 1.0 
        0.0300000000         0.0177967892
d   4 1.0 
        3.9030833060        -0.3425238389
        1.1363234302         0.7720253045
        0.4561704388         0.3307860529
        0.1747095075         0.0666361046
d   1 1.0 
        0.0619787966         0.0219480317
f   1 1.0 
        0.2651500000         0.2876446163

[5D]
[7F]
[9G]
[MO]
 Sym=     1a
 Ene= -2.27075230798577E+00
 Spin= Alpha
 Occup= 1.000000
  1       0.661936105806
  2      -0.921952829981
  3      -0.550247687400
  4      -0.017702385440
  5       0.004765291662
  6       0.000000189900
  7       0.000000052586
  8       0.000000064452
  9       0.000000132694
 10       0.000000024886
 11       0.000000031921
 12      -0.000000013454
 13      -0.000000000902
 14      -0.000000002570
 15      -0.000149665534
 16       0.000000113780
 17      -0.000000003317
 18       0.000258771879
 19      -0.000015197936
 20      -0.000705957598
 21       0.000000537114
 22      -0.000000015932
 23       0.001220691761
 24      -0.000071693061
 25       0.000000001388
 26       0.000000002406
 27      -0.000000001084
 28       0.000000000415
 29       0.000000000145
 30       0.000000002919
 31       0.000000000371
 Sym=     1a
 Ene= -1.33142837248959E+00
 Spin= Alpha
 Occup= 1.000000
  1      -0.000000045369
  2       0.000000042875
  3       0.000000073329
  4      -0.000000005067
  5      -0.000000010066
  6       0.027026105288
  7       0.921186665322
  8       0.008357787509
  9       0.003327833614
 10       0.113429428292
 11       0.001029127860
 12       0.000057984661
 13       0.001976405883
 14       0.000017931839
 15       0.000000033736
 16       0.000000006187
 17       0.000000066950
 18       0.000000001189
 19       0.000000440619
 20       0.000000038907
 21      -0.000000001513
 22      -0.000000019752
 23       0.000000032088
 24      -0.000000063369
 25      -0.000380697507
 26      -0.000505254763
 27      -0.017223324055
 28      -0.000348131563
 29       0.000023930480
 30       0.000818537310
 31       0.009279048352
 Sym=     1a
 Ene= -1.33142806248893E+00
 Spin= Alpha
 Occup= 1.000000
  1      -0.000000038566
  2       0.000000032718
  3       0.000000087407
  4      -0.000000007925
  5      -0.000000009664
  6      -0.000447462492
  7      -0.008348257149
  8       0.921583188479
  9      -0.000055097732
 10      -0.001027952222
 11       0.113477984197
 12      -0.000000960381
 13      -0.000017910969
 14       0.001977257974
 15       0.000000006999
 16       0.000000441660
 17       0.000000047753
 18      -0.000000045044
 19      -0.000000000924
 20      -0.000000055004
 21      -0.000000062611
 22      -0.000000013213
 23      -0.000000017185
 24       0.000000001258
 25       0.017915649520
 26      -0.000021813952
 27      -0.000508563502
 28       0.007904340596
 29      -0.000464078382
 30       0.000009793227
 31       0.000086765976
 Sym=     1a
 Ene= -1.30983438059550E+00
 Spin= Alpha
 Occup= 1.000000
  1      -0.000000114962
  2       0.000000081960
  3       0.000000223255
  4       0.000000090412
  5      -0.000000010409
  6       0.938111159093
  7      -0.027524513132
  8       0.000206153664
  9       0.090483037076
 10      -0.002654803868
 11       0.000019884280
 12       0.000020654212
 13      -0.000000605728
 14       0.000000004396
 15      -0.000000272421
 16       0.000000072860
 17      -0.000000001922
 18       0.000000476325
 19       0.000000038877
 20       0.000000043854
 21      -0.000000018284
 22       0.000000000907
 23      -0.000000077548
 24      -0.000000012554
 25      -0.000000169380
 26      -0.000314768160
 27       0.000009235457
 28       0.000000218260
 29      -0.000000015602
 30      -0.000405218429
 31       0.000035749897
 Sym=     1a
 Ene= -2.36195654609319E-01
 Spin= Alpha
 Occup= 1.000000
  1       0.000001918781
  2      -0.000003259581
  3      -0.000002941931
  4       0.000007736303
  5       0.000000569720
  6      -0.000000008101
  7      -0.000000007397
  8       0.000000015252
  9       0.000000010621
 10       0.000000064632
 11      -0.000000076065
 12       0.000000013725
 13       0.000000036989
 14      -0.000000053249
 15      -0.764318578217
 16       0.000661428937
 17       0.015933191464
 18      -0.440528093323
 19       0.025869264955
 20      -0.194683663664
 21       0.000168478102
 22       0.004058432832
 23      -0.112209530264
 24       0.006589312110
 25      -0.000000075041
 26      -0.000000447497
 27      -0.000000047835
 28      -0.000000032698
 29       0.000000012278
 30       0.000000349029
 31       0.000000004229
 Sym=     1a
 Ene= -2.10917530144272E-01
 Spin= Alpha
 Occup= 1.000000
  1       0.232091491333
  2      -0.380893463138
  3      -0.379728472228
  4       0.733792022402
  5       0.458912991579
  6      -0.000002696253
  7      -0.000000027315
  8      -0.000000115818
  9       0.000002439087
 10       0.000000055973
 11       0.000000140248
 12       0.000005490734
 13      -0.000000051953
 14       0.000000111068
 15       0.045009485607
 16      -0.000034234585
 17       0.000000893082
 18      -0.077812067279
 19       0.004570003033
 20       0.020090318279
 21      -0.000015280221
 22       0.000000414434
 23      -0.034733270212
 24       0.002039930550
 25       0.000000005363
 26       0.000000061525
 27      -0.000000001383
 28      -0.000000003935
 29       0.000000000716
 30       0.000000080623
 31      -0.000000000872
 Sym=     1a
 Ene= 2.22075941806625E-02
 Spin= Alpha
 Occup= 0.000000
  1      -0.000000023923
  2       0.000000040613
  3       0.000000019555
  4       0.000000074231
  5      -0.000000234811
  6       0.000071322281
  7       0.000736458589
  8      -0.226219499651
  9      -0.000020073409
 10      -0.000207274868
 11       0.063669233934
 12      -0.000310418104
 13      -0.003205306273
 14       0.984578622813
 15      -0.000000017340
 16       0.000001354173
 17      -0.000000116695
 18       0.000000020923
 19      -0.000000005613
 20      -0.000000161382
 21       0.000002206439
 22      -0.000000257888
 23       0.000000013356
 24      -0.000000007922
 25       0.014183608626
 26      -0.000018858061
 27      -0.000414332810
 28       0.002682118113
 29      -0.000157402694
 30       0.000008186738
 31       0.000084570684
 Sym=     1a
 Ene= 2.22076434849238E-02
 Spin= Alpha
 Occup= 0.000000
  1       0.000000024580
  2      -0.000000041548
  3      -0.000000021375
  4      -0.000000063137
  5       0.000000221007
  6       0.006634350294
  7       0.226122345460
  8       0.000738236611
  9      -0.001867231445
 10      -0.063641920896
 11      -0.000207776510
 12      -0.028874765025
 13      -0.984155115927
 14      -0.003213030368
 15       0.000000021939
 16      -0.000000002061
 17       0.000000084635
 18      -0.000000096766
 19      -0.000001357275
 20      -0.000000054357
 21      -0.000000001012
 22       0.000000215289
 23      -0.000000259422
 24      -0.000002205522
 25       0.000321123599
 26       0.000316946019
 27       0.010805018212
 28       0.000275284730
 29      -0.000017350101
 30      -0.000840783488
 31      -0.009530980236
 Sym=     1a
 Ene= 3.08926642636846E-02
 Spin= Alpha
 Occup= 0.000000
  1       0.000001408232
  2      -0.000002379044
  3      -0.000002055451
  4       0.000003932912
  5       0.000003032109
  6       0.196151516137
  7      -0.005755157221
  8       0.000043106561
  9      -0.034146918926
 10       0.001001883263
 11      -0.000007504404
 12      -0.996194714106
 13       0.029228717237
 14      -0.000218925874
 15       0.000001239061
 16       0.000000146286
 17      -0.000000004014
 18      -0.000002160344
 19       0.000000259789
 20       0.000001680780
 21       0.000000262641
 22      -0.000000007567
 23      -0.000002902347
 24       0.000000408083
 25      -0.000001251629
 26      -0.002324961354
 27       0.000068215054
 28       0.000001612985
 29      -0.000000092728
 30      -0.002990990841
 31       0.000263876382
 Sym=     1a
 Ene= 8.25189237041879E-02
 Spin= Alpha
 Occup= 0.000000
  1       0.017152274461
  2      -0.016332481003
  3      -0.086069417052
  4       0.443364662801
  5      -0.504625455084
  6      -0.000000336332
  7       0.000000005453
  8      -0.000000005747
  9      -0.000000021178
 10      -0.000000045708
 11      -0.000000051089
 12       0.000004216165
 13      -0.000000046568
 14       0.000000087016
 15       0.286951966499
 16      -0.000218247224
 17       0.000006339597
 18      -0.496152492052
 19       0.029139661791
 20       0.287070236125
 21      -0.000218336516
 22       0.000006342642
 23      -0.496356833559
 24       0.029151662477
 25      -0.000000033454
 26      -0.000000023096
 27      -0.000000012623
 28       0.000000044577
 29      -0.000000002596
 30      -0.000000033860
 31      -0.000000045957
 Sym=     1a
 Ene= 8.64518327624147E-02
 Spin= Alpha
 Occup= 0.000000
  1      -0.000000000441
  2       0.000000000487
  3       0.000000001687
  4      -0.000000007374
  5       0.000000007604
  6      -0.000000052997
  7       0.000000000347
  8       0.000000153794
  9      -0.000000081211
 10       0.000000001199
 11       0.000000144839
 12       0.000000380580
 13       0.000000015296
 14      -0.000003129496
 15       0.000217187842
 16       0.570615470583
 17      -0.016743118416
 18      -0.000409429159
 19      -0.004832604309
 20       0.000232785388
 21       0.611596649676
 22      -0.017945595655
 23      -0.000438835131
 24      -0.005179677286
 25       0.000000014986
 26      -0.000000067177
 27       0.000000002252
 28      -0.000000045044
 29      -0.000000044660
 30       0.000000002964
 31      -0.000000000738
 Sym=     1a
 Ene= 8.64520437840819E-02
 Spin= Alpha
 Occup= 0.000000
  1       0.000000000461
  2      -0.000000000370
  3      -0.000000002343
  4       0.000000011616
  5      -0.000000013605
  6      -0.000000044136
  7       0.000000154593
  8       0.000000001211
  9      -0.000000070527
 10       0.000000148749
 11       0.000000001220
 12       0.000000255021
 13      -0.000003145551
 14      -0.000000026606
 15       0.000001844729
 16       0.004849881161
 17      -0.000016852908
 18       0.033468617723
 19       0.569878510346
 20       0.000001977484
 21       0.005198208171
 22      -0.000018064026
 23       0.035872386189
 24       0.610808065558
 25       0.000000000495
 26       0.000000017801
 27       0.000000023061
 28      -0.000000003181
 29      -0.000000053102
 30      -0.000000054869
 31       0.000000043019
 Sym=     1a
 Ene= 9.38111840937733E-02
 Spin= Alpha
 Occup= 0.000000
  1       0.000000000532
  2      -0.000000001235
  3       0.000000000769
  4      -0.000000006125
  5       0.000000010301
  6       0.000000001766
  7       0.000000044375
  8       0.000000041199
  9       0.000000001894
 10       0.000000063823
 11       0.000000058927
 12      -0.000000008184
 13      -0.000000280738
 14      -0.000000258039
 15      -0.008262908559
 16      -0.015485424585
 17      -0.527857594455
 18      -0.004755597483
 19       0.000395495964
 20      -0.010204407026
 21      -0.019123965945
 22      -0.651885907840
 23      -0.005872995956
 24       0.000488424564
 25      -0.000000043297
 26       0.000000002923
 27       0.000000073768
 28      -0.000000045217
 29       0.000000055878
 30      -0.000000001152
 31      -0.000000005963
 Sym=     1a
 Ene= 1.23662429432432E-01
 Spin= Alpha
 Occup= 0.000000
  1       0.166834799465
  2      -0.183126641788
  3      -0.649529757146
  4       2.408327121101
  5      -2.057303847544
  6      -0.000000320540
  7       0.000000119983
  8       0.000000121995
  9       0.000000634299
 10      -0.000000166705
 11      -0.000000163686
 12      -0.000001346091
 13       0.000000008983
 14      -0.000000032780
 15      -0.046513427910
 16       0.000035377815
 17      -0.000001044887
 18       0.080425447106
 19      -0.004723490510
 20      -0.080585841321
 21       0.000061293740
 22      -0.000001795729
 23       0.139337781645
 24      -0.008183488045
 25       0.000000005672
 26       0.000000000473
 27       0.000000005175
 28      -0.000000011226
 29       0.000000000702
 30       0.000000001722
 31       0.000000010113
 Sym=     1a
 Ene= 2.28465792541344E-01
 Spin= Alpha
 Occup= 0.000000
  1       0.000000132911
  2      -0.000000154422
  3      -0.000000417189
  4       0.000001107389
  5      -0.000000579234
  6       0.000000002043
  7       0.000000018463
  8      -0.000000021218
  9      -0.000000003302
 10       0.000000003583
 11      -0.000000000233
 12       0.000000005593
 13       0.000000095583
 14      -0.000000105236
 15       0.578491502534
 16      -0.000500617865
 17      -0.012059380305
 18       0.333422403003
 19      -0.019579665600
 20      -0.938580829845
 21       0.000812233319
 22       0.019565898782
 23      -0.540965920384
 24       0.031767306041
 25      -0.000000010993
 26      -0.000000066036
 27      -0.000000006320
 28      -0.000000003414
 29       0.000000001701
 30       0.000000051186
 31       0.000000001362
 Sym=     1a
 Ene= 2.79044016701145E-01
 Spin= Alpha
 Occup= 0.000000
  1      -0.007696620104
  2       0.001519200265
  3       0.048310454035
  4      -0.113794345658
  5       0.065639638654
  6       0.000000148055
  7      -0.000000008780
  8      -0.000000005348
  9       0.000000464693
 10      -0.000000037942
 11      -0.000000026645
 12      -0.000000766008
 13      -0.000000001822
 14      -0.000000027191
 15       0.468879298714
 16      -0.000356619926
 17       0.000010360529
 18      -0.810714163951
 19       0.047614268100
 20      -0.465918122680
 21       0.000354367914
 22      -0.000010295669
 23       0.805594251944
 24      -0.047313569274
 25      -0.000000030352
 26      -0.000000132078
 27      -0.000000003660
 28       0.000000033939
 29      -0.000000001976
 30      -0.000000172756
 31      -0.000000025422
 Sym=     1a
 Ene= 2.82627609576603E-01
 Spin= Alpha
 Occup= 0.000000
  1      -0.000000000207
  2       0.000000000121
  3       0.000000000920
  4      -0.000000002004
  5       0.000000001145
  6      -0.000000028612
  7      -0.000000000625
  8       0.000000196128
  9       0.000000106399
 10      -0.000000005140
 11       0.000000234247
 12       0.000000015899
 13       0.000000003740
 14      -0.000000472964
 15      -0.000360841338
 16      -0.948035986546
 17       0.027817563364
 18       0.000702812491
 19       0.008413321430
 20       0.000350982222
 21       0.922130211767
 22      -0.027057428287
 23      -0.000683606787
 24      -0.008183421661
 25      -0.000000161283
 26       0.000000058275
 27      -0.000000000437
 28       0.000000161346
 29       0.000000027760
 30      -0.000000002639
 31       0.000000002008
 Sym=     1a
 Ene= 2.82627793969232E-01
 Spin= Alpha
 Occup= 0.000000
  1       0.000000000137
  2       0.000000000116
  3      -0.000000001119
  4       0.000000002230
  5      -0.000000001651
  6      -0.000000020610
  7       0.000000196446
  8       0.000000002041
  9       0.000000106531
 10       0.000000231002
 11       0.000000002264
 12      -0.000000000554
 13      -0.000000473131
 14      -0.000000004259
 15      -0.000003213531
 16      -0.008442537105
 17       0.000039286860
 18      -0.055605671192
 19      -0.946813032062
 20       0.000003124858
 21       0.008211831342
 22      -0.000038213002
 23       0.054086158973
 24       0.920939890502
 25      -0.000000000555
 26      -0.000000015493
 27      -0.000000027216
 28       0.000000004538
 29       0.000000041749
 30       0.000000030427
 31      -0.000000228515
 Sym=     1a
 Ene= 2.93387759017962E-01
 Spin= Alpha
 Occup= 0.000000
  1      -0.000000000404
  2       0.000000000890
  3      -0.000000000206
  4       0.000000000754
  5      -0.000000001955
  6      -0.000000000869
  7      -0.000000026877
  8      -0.000000027197
  9       0.000000003050
 10       0.000000102586
 11       0.000000097001
 12       0.000000000387
 13       0.000000014562
 14       0.000000012879
 15      -0.015220623761
 16      -0.028524802242
 17      -0.972335480588
 18      -0.008759990388
 19       0.000728523930
 20       0.013993324288
 21       0.026224732328
 22       0.893932150682
 23       0.008053638029
 24      -0.000669779981
 25      -0.000000037622
 26       0.000000004810
 27       0.000000066683
 28      -0.000000032913
 29       0.000000202152
 30      -0.000000002579
 31      -0.000000003610
 Sym=     1a
 Ene= 4.32784388206956E-01
 Spin= Alpha
 Occup= 0.000000
  1       0.000000034679
  2      -0.000000100045
  3       0.000000095165
  4      -0.000000219926
  5       0.000000266819
  6       0.028386603403
  7       0.967672857083
  8       0.023996831439
  9      -0.043857793191
 10      -1.495071302968
 11      -0.037075523793
 12       0.017408764302
 13       0.593448558301
 14       0.014716632563
 15      -0.000000041848
 16      -0.000000002354
 17      -0.000000084425
 18      -0.000000005337
 19       0.000000005493
 20       0.000000002830
 21       0.000000007879
 22       0.000000022823
 23       0.000000003910
 24       0.000000290286
 25       0.000165098310
 26       0.001170099003
 27       0.039875801153
 28       0.000625064232
 29      -0.000043387496
 30      -0.002348562177
 31      -0.026622464790
 Sym=     1a
 Ene= 4.32784397865019E-01
 Spin= Alpha
 Occup= 0.000000
  1      -0.000000036463
  2       0.000000105104
  3      -0.000000100124
  4       0.000000231829
  5      -0.000000280801
  6       0.000916340363
  7       0.023980274153
  8      -0.968088972527
  9      -0.001415762277
 10      -0.037049940286
 11       1.495714455271
 12       0.000561967694
 13       0.014706477337
 14      -0.593703777389
 15      -0.000000031366
 16      -0.000000001951
 17       0.000000077086
 18      -0.000000037351
 19       0.000000002370
 20      -0.000000010045
 21      -0.000000289647
 22      -0.000000012987
 23       0.000000010206
 24       0.000000006527
 25       0.045557567858
 26      -0.000036726355
 27      -0.000595593714
 28       0.015146270691
 29      -0.000889283598
 30      -0.000018181860
 31      -0.000252533804
 Sym=     1a
 Ene= 4.41085927375846E-01
 Spin= Alpha
 Occup= 0.000000
  1       0.000000536143
  2      -0.000000942722
  3      -0.000000664672
  4       0.000001998291
  5      -0.000000131139
  6       0.958749599032
  7      -0.028130065281
  8       0.000210698222
  9      -1.499914959925
 10       0.044008055637
 11      -0.000329626439
 12       0.573392904314
 13      -0.016823558456
 14       0.000126010965
 15       0.000000143761
 16      -0.000000098360
 17       0.000000002941
 18      -0.000000266458
 19      -0.000000074401
 20      -0.000000184234
 21       0.000000025743
 22      -0.000000000729
 23       0.000000322475
 24       0.000000005176
 25      -0.000001725935
 26      -0.003205216690
 27       0.000094041723
 28       0.000002223806
 29      -0.000000123875
 30      -0.004123040660
 31       0.000363750503
 Sym=     1a
 Ene= 7.77044882835192E-01
 Spin= Alpha
 Occup= 0.000000
  1      -0.000000002987
  2       0.000000009478
  3      -0.000000010177
  4       0.000000014339
  5      -0.000000011526
  6      -0.000934027734
  7      -0.031836401256
  8      -0.000288281096
  9       0.002201143943
 10       0.075026142818
 11       0.000679367687
 12      -0.000421182612
 13      -0.014356037264
 14      -0.000129995088
 15      -0.000000058258
 16       0.000000003859
 17       0.000000091794
 18       0.000000002787
 19       0.000000130900
 20      -0.000000019549
 21      -0.000000001090
 22      -0.000000013007
 23      -0.000000020422
 24      -0.000000079342
 25       0.018047532551
 26       0.023935192354
 27       0.815894860288
 28       0.017974759817
 29      -0.001184805791
 30      -0.050495229809
 31      -0.572409928396
 Sym=     1a
 Ene= 7.77045069032370E-01
 Spin= Alpha
 Occup= 0.000000
  1       0.000000002945
  2      -0.000000009889
  3       0.000000011593
  4      -0.000000016461
  5       0.000000012585
  6      -0.000015447672
  7      -0.000287951085
  8       0.031849903042
  9       0.000036404185
 10       0.000678589292
 11      -0.075057969495
 12      -0.000006965789
 13      -0.000129845843
 14       0.014362107379
 15      -0.000000039976
 16      -0.000000133230
 17      -0.000000078723
 18      -0.000000054099
 19       0.000000004432
 20      -0.000000025457
 21       0.000000081616
 22       0.000000010199
 23      -0.000000009550
 24      -0.000000000194
 25       0.954131209657
 26      -0.001153069815
 27      -0.025269688497
 28       0.292913027372
 29      -0.017195228535
 30       0.000363115311
 31       0.003217597812
 Sym=     1a
 Ene= 7.83704384176279E-01
 Spin= Alpha
 Occup= 0.000000
  1      -0.000000000038
  2       0.000000000209
  3      -0.000000000553
  4       0.000000001046
  5      -0.000000000184
  6       0.000000226892
  7      -0.000000006756
  8       0.000000000002
  9      -0.000000572528
 10       0.000000016886
 11      -0.000000000240
 12       0.000000109809
 13      -0.000000003270
 14       0.000000000051
 15      -0.000000383830
 16       0.000000075171
 17       0.000000005808
 18      -0.000000225597
 19      -0.000000057223
 20      -0.000000188359
 21      -0.000000010001
 22       0.000000004218
 23      -0.000000107554
 24       0.000000015550
 25       0.000425304252
 26       0.790097274833
 27      -0.023188013061
 28      -0.001168753721
 29      -0.018027074323
 30      -0.609907603018
 31       0.053803400032
 Sym=     1a
 Ene= 8.03093160839228E-01
 Spin= Alpha
 Occup= 0.000000
  1       0.000000007238
  2       0.000000009881
  3      -0.000000071000
  4       0.000000074317
  5       0.000000031599
  6      -0.006247599489
  7       0.000183306529
  8      -0.000001372774
  9       0.007936631830
 10      -0.000232863215
 11       0.000001743947
 12       0.000781483876
 13      -0.000022929059
 14       0.000000171750
 15      -0.000000113582
 16      -0.000000054150
 17       0.000000001640
 18       0.000000190875
 19      -0.000000060535
 20       0.000000085789
 21       0.000000005918
 22      -0.000000000179
 23      -0.000000148449
 24       0.000000014237
 25      -0.000329481229
 26      -0.612099601219
 27       0.017959212867
 28       0.000424621888
 29      -0.000024867018
 30      -0.787491161217
 31       0.069475333306
 Sym=     1a
 Ene= 8.05803257888105E-01
 Spin= Alpha
 Occup= 0.000000
  1       0.000000001454
  2       0.000000000719
  3      -0.000000011459
  4       0.000000016831
  5      -0.000000000242
  6       0.000000669289
  7       0.000012213093
  8      -0.001416311093
  9       0.000000855498
 10       0.000015596575
 11      -0.001808559804
 12      -0.000001052231
 13      -0.000019191802
 14       0.002225529023
 15      -0.000000042154
 16       0.000000214834
 17      -0.000000055873
 18       0.000000055182
 19      -0.000000005096
 20       0.000000001361
 21      -0.000000152632
 22       0.000000010795
 23      -0.000000006407
 24       0.000000001694
 25      -0.294194806538
 26       0.000273796184
 27      -0.007382825096
 28       0.954013249374
 29      -0.056030595704
 30       0.001156576495
 31       0.010184249658
 Sym=     1a
 Ene= 8.05803445221716E-01
 Spin= Alpha
 Occup= 0.000000
  1       0.000000001439
  2       0.000000000484
  3      -0.000000010747
  4       0.000000016030
  5      -0.000000000093
  6      -0.000041535472
  7      -0.001415753246
  8      -0.000012228603
  9      -0.000053033596
 10      -0.001807624434
 11      -0.000015612505
 12       0.000065264605
 13       0.002224537589
 14       0.000019213996
 15      -0.000000027139
 16       0.000000000305
 17      -0.000000053844
 18       0.000000070515
 19       0.000000212522
 20       0.000000004711
 21      -0.000000001128
 22       0.000000006665
 23      -0.000000013193
 24      -0.000000152551
 25      -0.012614875284
 26      -0.016867142373
 27      -0.575115659515
 28       0.000470593526
 29       0.000392915723
 30      -0.071869590076
 31      -0.814630995419
 Sym=     1a
 Ene= 8.09432072599924E-01
 Spin= Alpha
 Occup= 0.000000
  1       0.000000000175
  2      -0.000000000167
  3      -0.000000000465
  4       0.000000000526
  5       0.000000000094
  6      -0.000000000312
  7       0.000000000122
  8      -0.000000000452
  9       0.000000000496
 10      -0.000000000458
 11       0.000000000698
 12      -0.000000000066
 13       0.000000000078
 14      -0.000000000109
 15      -0.000000003578
 16      -0.000000070688
 17      -0.000000220592
 18      -0.000000006083
 19      -0.000000067981
 20       0.000000002250
 21       0.000000009874
 22       0.000000143903
 23       0.000000001615
 24       0.000000005749
 25      -0.000007688867
 26      -0.014285343632
 27       0.000071734866
 28      -0.058618675469
 29      -0.998116891231
 30       0.010995826616
 31      -0.001240111009
 Sym=     1a
 Ene= 1.42672748048713E+00
 Spin= Alpha
 Occup= 0.000000
  1       1.267896976672
  2      -4.068573608692
  3       3.647210159700
  4      -1.675973205376
  5       0.758542444891
  6      -0.000000091837
  7      -0.000000021976
  8      -0.000000028144
  9       0.000000082889
 10       0.000000023476
 11       0.000000028478
 12      -0.000000017852
 13      -0.000000012484
 14      -0.000000014370
 15      -0.003056439805
 16       0.000002324734
 17      -0.000000069625
 18       0.005284944596
 19      -0.000310391641
 20       0.000578622802
 21      -0.000000440137
 22       0.000000012696
 23      -0.001000449369
 24       0.000058757721
 25      -0.000000001792
 26      -0.000000005611
 27       0.000000000776
 28       0.000000000587
 29      -0.000000000080
 30      -0.000000007512
 31      -0.000000000942
 Sym=     1a
 Ene= 3.03231586630688E+01
 Spin= Alpha
 Occup= 0.000000
  1      -2.196866277191
  2       2.281073439588
  3      -1.053443089835
  4       0.326250365957
  5      -0.145862725872
  6       0.000000002442
  7      -0.000000001088
  8       0.000000002858
  9      -0.000000001532
 10      -0.000000000525
 11      -0.000000000174
 12       0.000000000401
 13       0.000000000118
 14       0.000000000156
 15       0.000010762509
 16      -0.000000008186
 17       0.000000000256
 18      -0.000018610789
 19       0.000001093036
 20      -0.000002727299
 21       0.000000002075
 22      -0.000000000057
 23       0.000004715285
 24      -0.000000276935
 25       0.000000000065
 26       0.000000000005
 27       0.000000000013
 28       0.000000000024
 29      -0.000000000001
 30       0.000000000008
 31      -0.000000000003
 Sym=     1a
 Ene= -2.24244283608097E+00
 Spin=Beta
 Occup= 1.000000
  1      -0.667258963727
  2       0.937010461475
  3       0.541603954720
  4       0.013979657020
  5      -0.003751746425
  6      -0.000000430744
  7      -0.000000042763
  8      -0.000000060859
  9      -0.000000096030
 10      -0.000000020590
 11      -0.000000026350
 12      -0.000000003596
 13       0.000000001072
 14       0.000000002201
 15      -0.004888365333
 16       0.000003717868
 17      -0.000000111775
 18       0.008452628660
 19      -0.000496433569
 20       0.000931814844
 21      -0.000000708400
 22       0.000000021095
 23      -0.001611232343
 24       0.000094629688
 25       0.000000000423
 26       0.000000000753
 27      -0.000000000058
 28      -0.000000000444
 29       0.000000000173
 30       0.000000001371
 31       0.000000000612
 Sym=     1a
 Ene= -1.30521063131316E+00
 Spin=Beta
 Occup= 1.000000
  1      -0.000000203761
  2       0.000000049720
  3       0.000000654616
  4      -0.000000050087
  5      -0.000000168034
  6       0.929547916567
  7      -0.027273263255
  8       0.000204269822
  9       0.101964983436
 10      -0.002991688633
 11       0.000022407379
 12       0.002232149627
 13      -0.000065492415
 14       0.000000490539
 15      -0.000000227622
 16       0.000000069971
 17      -0.000000002257
 18       0.000000396443
 19       0.000000040729
 20       0.000000098880
 21      -0.000000019429
 22       0.000000000406
 23      -0.000000171431
 24      -0.000000007463
 25      -0.000002721999
 26      -0.005056859404
 27       0.000148370102
 28       0.000003507975
 29      -0.000000207019
 30      -0.006506001963
 31       0.000573983337
 Sym=     1a
 Ene= -1.27110022873805E+00
 Spin=Beta
 Occup= 1.000000
  1       0.000000035829
  2      -0.000000028500
  3      -0.000000073252
  4      -0.000000003634
  5       0.000000003886
  6       0.000456980995
  7       0.008539892049
  8      -0.939320481036
  9       0.000043348620
 10       0.000810082335
 11      -0.089102616215
 12       0.000000364918
 13       0.000006814743
 14      -0.000749561785
 15      -0.000000082101
 16      -0.000000367853
 17      -0.000000054865
 18       0.000000000207
 19       0.000000003705
 20       0.000000021106
 21       0.000000115007
 22       0.000000013885
 23       0.000000000150
 24      -0.000000001415
 25       0.006682702596
 26      -0.000007696283
 27      -0.000101484347
 28      -0.003222863180
 29       0.000189328204
 30      -0.000004047602
 31      -0.000035995351
 Sym=     1a
 Ene= -1.27109970211473E+00
 Spin=Beta
 Occup= 1.000000
  1      -0.000000032108
  2       0.000000024167
  3       0.000000069192