[Molden Format]
[Title]
 Molden file created by orca_2mkl for BaseName=00_lih

[Atoms] AU
H    1   1          0.0000000000         0.0000000000         4.7243153348 
Li   2   3          0.0000000000         0.0000000000         0.0000000000 
[GTO]
  1 0
s   3 1.0 
       13.0100000000         0.1635484228
        1.9620000000         0.2774175417
        0.4446000000         0.3157493070
s   1 1.0 
        0.1220000000         0.1471227944
p   1 1.0 
        0.7270000000         0.9568813751

  2 0
s   8 1.0 
     1469.0000000000         0.1294729558
      220.5000000000         0.2401613575
       50.2600000000         0.3989633419
       14.2400000000         0.5701111413
        4.5810000000         0.6307636786
        1.5800000000         0.4548758379
        0.5640000000         0.1273851815
        0.0734500000         0.0009800020
s   8 1.0 
     1469.0000000000        -0.0380490169
      220.5000000000        -0.0705755049
       50.2600000000        -0.1182749963
       14.2400000000        -0.1732047211
        4.5810000000        -0.2046174592
        1.5800000000        -0.1808009087
        0.5640000000        -0.1186057820
        0.0734500000         0.1084262844
s   1 1.0 
        0.0280500000         0.0488494571
p   3 1.0 
        1.5340000000         0.0924806514
        0.2749000000         0.0658349664
        0.0736200000         0.0456225523
p   1 1.0 
        0.0240300000         0.0134859735
d   1 1.0 
        0.1144000000         0.0641528015

[5D]
[7F]
[9G]
[MO]
 Sym=     1a
 Ene= -2.52207147288058E+00
 Spin= Alpha
 Occup= 2.000000
  1       0.000035173232
  2       0.002022992401
  3      -0.000000000000
  4       0.000000000000
  5      -0.000464991218
  6       1.000524922681
  7      -0.000426577183
  8      -0.004145673760
  9      -0.000000000000
 10      -0.000000000000
 11      -0.004843466670
 12       0.000000000000
 13       0.000000000000
 14       0.001678205490
 15      -0.000752917568
 16      -0.000000000000
 17      -0.000000000000
 18      -0.000000000000
 19       0.000000000000
 Sym=     1a
 Ene= -2.52706418790013E-01
 Spin= Alpha
 Occup= 2.000000
  1      -0.351560099892
  2      -0.412381479621
  3      -0.000000000000
  4       0.000000000000
  5       0.005848587576
  6       0.019039878539
  7      -0.189895763272
  8      -0.202714274254
  9      -0.000000000000
 10       0.000000000000
 11      -0.150804216989
 12      -0.000000000000
 13       0.000000000000
 14      -0.084426351374
 15      -0.034035761700
 16      -0.000000000000
 17      -0.000000000000
 18       0.000000000000
 19      -0.000000000000
 Sym=     1a
 Ene= -1.87705910874621E-02
 Spin= Alpha
 Occup= 0.000000
  1      -0.084982679303
  2      -0.090201518537
  3      -0.000000000000
  4      -0.000000000000
  5      -0.000667469785
  6      -0.096951749492
  7       0.091361741154
  8       0.705517834374
  9      -0.000000000000
 10       0.000000000000
 11      -0.229971116622
 12      -0.000000000000
 13       0.000000000000
 14      -0.436156785090
 15       0.017629839575
 16       0.000000000000
 17      -0.000000000000
 18      -0.000000000000
 19       0.000000000000
 Sym=     1a
 Ene= 3.18891049448813E-02
 Spin= Alpha
 Occup= 0.000000
  1       0.000000000000
  2       0.000000000000
  3       0.000951405118
  4       0.003177135021
  5      -0.000000000000
  6      -0.000000000000
  7      -0.000000000000
  8       0.000000000000
  9       0.049431803901
 10       0.165073229456
 11       0.000000000000
 12       0.252501723045
 13       0.843207643196
 14       0.000000000000
 15      -0.000000000000
 16      -0.020691100800
 17      -0.069096139744
 18      -0.000000000000
 19      -0.000000000000
 Sym=     1a
 Ene= 3.18891049448813E-02
 Spin= Alpha
 Occup= 0.000000
  1       0.000000000000
  2       0.000000000000
  3      -0.003177135021
  4       0.000951405118
  5      -0.000000000000
  6      -0.000000000000
  7      -0.000000000000
  8       0.000000000000
  9      -0.165073229456
 10       0.049431803901
 11       0.000000000000
 12      -0.843207643196
 13       0.252501723045
 14       0.000000000000
 15      -0.000000000000
 16       0.069096139744
 17      -0.020691100800
 18       0.000000000000
 19      -0.000000000000
 Sym=     1a
 Ene= 9.74900735967641E-02
 Spin= Alpha
 Occup= 0.000000
  1       0.113258390337
  2       0.606994325834
  3       0.000000000000
  4      -0.000000000000
  5       0.000236327976
  6      -0.094223940561
  7      -0.530529200499
  8      -0.078187411958
  9       0.000000000000
 10      -0.000000000000
 11       0.431176172040
 12      -0.000000000000
 13       0.000000000000
 14      -1.169863026614
 15       0.025109910655
 16      -0.000000000000
 17      -0.000000000000
 18      -0.000000000000
 19       0.000000000000
 Sym=     1a
 Ene= 1.42066107856892E-01
 Spin= Alpha
 Occup= 0.000000
  1      -0.065344259959
  2      -0.422293629394
  3      -0.000000000000
  4      -0.000000000000
  5      -0.002262318597
  6      -0.509261711860
  7      -1.538573145327
  8       1.753963895481
  9       0.000000000000
 10      -0.000000000000
 11       0.589693424311
 12      -0.000000000000
 13       0.000000000000
 14       0.026513121804
 15      -0.119796115437
 16      -0.000000000000
 17       0.000000000000
 18       0.000000000000
 19       0.000000000000
 Sym=     1a
 Ene= 1.53529310902450E-01
 Spin= Alpha
 Occup= 0.000000
  1      -0.000000000000
  2      -0.000000000000
  3      -0.002565999833
  4       0.002102737049
  5      -0.000000000000
  6      -0.000000000000
  7      -0.000000000000
  8       0.000000000000
  9      -0.972996726535
 10       0.797332968881
 11       0.000000000000
 12       0.720511753227
 13      -0.590431354646
 14      -0.000000000000
 15      -0.000000000000
 16       0.104692164517
 17      -0.085791156410
 18       0.000000000000
 19      -0.000000000000
 Sym=     1a
 Ene= 1.53529310902450E-01
 Spin= Alpha
 Occup= 0.000000
  1      -0.000000000000
  2       0.000000000000
  3       0.002102737049
  4       0.002565999833
  5       0.000000000000
  6       0.000000000000
  7       0.000000000000
  8      -0.000000000000
  9       0.797332968881
 10       0.972996726535
 11      -0.000000000000
 12      -0.590431354646
 13      -0.720511753227
 14       0.000000000000
 15      -0.000000000000
 16      -0.085791156410
 17      -0.104692164517
 18      -0.000000000000
 19      -0.000000000000
 Sym=     1a
 Ene= 1.90778785978115E-01
 Spin= Alpha
 Occup= 0.000000
  1       0.103409001035
  2       0.212623444171
  3      -0.000000000000
  4      -0.000000000000
  5       0.023430586085
  6      -0.307645938267
  7      -1.082322569451
  8       0.775470959148
  9      -0.000000000000
 10       0.000000000000
 11      -0.959493312280
 12       0.000000000000
 13      -0.000000000000
 14       0.536599331089
 15       0.307125987202
 16       0.000000000000
 17      -0.000000000000
 18       0.000000000000
 19       0.000000000000
 Sym=     1a
 Ene= 3.13976181694451E-01
 Spin= Alpha
 Occup= 0.000000
  1      -0.000000000000
  2       0.000000000000
  3      -0.000000000000
  4       0.000000000000
  5      -0.000000000000
  6       0.000000000000
  7       0.000000000000
  8      -0.000000000000
  9       0.000000000000
 10       0.000000000000
 11      -0.000000000000
 12      -0.000000000000
 13      -0.000000000000
 14      -0.000000000000
 15      -0.000000000000
 16      -0.000000000000
 17       0.000000000000
 18       0.147874252553
 19       0.989006170573
 Sym=     1a
 Ene= 3.13976181694453E-01
 Spin= Alpha
 Occup= 0.000000
  1      -0.000000000000
  2      -0.000000000000
  3      -0.000000000000
  4       0.000000000000
  5       0.000000000000
  6      -0.000000000000
  7      -0.000000000000
  8       0.000000000000
  9      -0.000000000000
 10       0.000000000000
 11       0.000000000000
 12       0.000000000000
 13      -0.000000000000
 14       0.000000000000
 15       0.000000000000
 16      -0.000000000000
 17       0.000000000000
 18      -0.989006170573
 19       0.147874252553
 Sym=     1a
 Ene= 3.24400437622671E-01
 Spin= Alpha
 Occup= 0.000000
  1      -0.000000000000
  2      -0.000000000000
  3       0.009499472066
  4       0.015699542766
  5      -0.000000000000
  6       0.000000000000
  7       0.000000000000
  8       0.000000000000
  9       0.095016967401
 10       0.157032194291
 11       0.000000000000
 12      -0.032963856129
 13      -0.054478550535
 14      -0.000000000000
 15      -0.000000000000
 16       0.510402983304
 17       0.843530399184
 18      -0.000000000000
 19      -0.000000000000
 Sym=     1a
 Ene= 3.24400437622671E-01
 Spin= Alpha
 Occup= 0.000000
  1       0.000000000000
  2      -0.000000000000
  3       0.015699542766
  4      -0.009499472066
  5      -0.000000000000
  6       0.000000000000
  7       0.000000000000
  8      -0.000000000000
  9       0.157032194291
 10      -0.095016967401
 11       0.000000000000
 12      -0.054478550535
 13       0.032963856129
 14      -0.000000000000
 15       0.000000000000
 16       0.843530399184
 17      -0.510402983304
 18      -0.000000000000
 19       0.000000000000
 Sym=     1a
 Ene= 4.12682183774206E-01
 Spin= Alpha
 Occup= 0.000000
  1      -0.041868120831
  2      -1.120896928915
  3      -0.000000000000
  4      -0.000000000000
  5      -0.006918455331
  6       0.001610896193
  7       0.124557683148
  8       0.389990734871
  9      -0.000000000000
 10       0.000000000000
 11       0.614745418676
 12       0.000000000000
 13      -0.000000000000
 14       0.204031186781
 15       1.185413256558
 16      -0.000000000000
 17       0.000000000000
 18       0.000000000000
 19      -0.000000000000
 Sym=     1a
 Ene= 8.80397344227238E-01
 Spin= Alpha
 Occup= 0.000000
  1       1.399294229596
  2      -1.697532290446
  3       0.000000000000
  4      -0.000000000000
  5      -0.047943724640
  6       0.002700053242
  7       0.016338011045
  8       0.393647595690
  9       0.000000000000
 10       0.000000000000
 11       0.207658295807
 12      -0.000000000000
 13      -0.000000000000
 14       0.304148446421
 15       0.118121907384
 16      -0.000000000000
 17       0.000000000000
 18      -0.000000000000
 19      -0.000000000000
 Sym=     1a
 Ene= 1.68343675853906E+00
 Spin= Alpha
 Occup= 0.000000
  1       0.000000000000
  2      -0.000000000000
  3      -0.977878562492
  4       0.245778413544
  5      -0.000000000000
  6       0.000000000000
  7       0.000000000000
  8      -0.000000000000
  9       0.043709751893
 10      -0.010985938223
 11       0.000000000000
 12       0.018993527826
 13      -0.004773802511
 14      -0.000000000000
 15      -0.000000000000
 16       0.132470933943
 17      -0.033295029909
 18       0.000000000000
 19       0.000000000000
 Sym=     1a
 Ene= 1.68343675853906E+00
 Spin= Alpha
 Occup= 0.000000
  1       0.000000000000
  2      -0.000000000000
  3       0.245778413544
  4       0.977878562492
  5       0.000000000000
  6       0.000000000000
  7       0.000000000000
  8       0.000000000000
  9      -0.010985938223
 10      -0.043709751893
 11       0.000000000000
 12      -0.004773802511
 13      -0.018993527826
 14       0.000000000000
 15       0.000000000000
 16      -0.033295029909
 17      -0.132470933943
 18       0.000000000000
 19       0.000000000000
 Sym=     1a
 Ene= 1.81224516851712E+00
 Spin= Alpha
 Occup= 0.000000
  1      -0.150984542043
  2       0.549331268168
  3       0.000000000000
  4       0.000000000000
  5      -1.054261072629
  6      -0.046600006631
  7      -0.214075473862
  8      -0.064361231517
  9       0.000000000000
 10       0.000000000000
 11      -0.357419059908
 12      -0.000000000000
 13      -0.000000000000
 14      -0.015360907474
 15      -0.345652090472
 16      -0.000000000000
 17      -0.000000000000
 18      -0.000000000000
 19      -0.000000000000
