Generated by Psi4
        SP                           RHF                        STO-3G
Number of atoms                            I                2
Charge                                     I                0
Multiplicity                               I                1
Number of electrons                        I                2
Number of alpha electrons                  I                1
Number of beta electrons                   I                1
Number of basis functions                  I                2
Number of independent functions            I                2
Atomic numbers                             I   N=           2
           1           1
Nuclear charges                            R   N=           2
  1.00000000e+00  1.00000000e+00
Current cartesian coordinates              R   N=           6
  0.00000000e+00  0.00000000e+00 -6.61404144e-01  0.00000000e+00  0.00000000e+00
  6.61404144e-01
Integer atomic weights                     I   N=           2
           1           1
Real atomic weights                        R   N=           2
  1.00782503e+00  1.00782503e+00
Number of primitive shells                 I                6
Number of contracted shells                I                2
Pure/Cartesian d shells                    I                0
Pure/Cartesian f shells                    I                0
Highest angular momentum                   I                0
Largest degree of contraction              I                3
Shell types                                I   N=           2
           0           0
Number of primitives per shell             I   N=           2
           3           3
Shell to atom map                          I   N=           2
           1           2
Primitive exponents                        R   N=           6
  3.42525091e+00  6.23913730e-01  1.68855400e-01  3.42525091e+00  6.23913730e-01
  1.68855400e-01
Contraction coefficients                   R   N=           6
  1.54328971e-01  5.35328142e-01  4.44634542e-01  1.54328971e-01  5.35328142e-01
  4.44634542e-01
Coordinates of each shell                  R   N=           6
  0.00000000e+00  0.00000000e+00 -6.61404144e-01  0.00000000e+00  0.00000000e+00
  6.61404144e-01
Total Energy                               R     -1.117373507995154e+00
Alpha Orbital Energies                     R   N=           2
 -5.95487946e-01  7.13940653e-01
Alpha MO coefficients                      R   N=           4
  5.44558695e-01  5.44558695e-01  1.26206594e+00 -1.26206594e+00
Total SCF Density                          R   N=           3
  5.93088344e-01  5.93088344e-01  5.93088344e-01
