Generated by Psi4
        SP                           UHF             ANONYMOUS1F3C57E9
Number of atoms                            I                1
Charge                                     I                0
Multiplicity                               I                2
Number of electrons                        I                1
Number of alpha electrons                  I                1
Number of beta electrons                   I                0
Number of basis functions                  I                3
Number of independent functions            I                3
Atomic numbers                             I   N=           1
           1
Nuclear charges                            R   N=           1
  1.00000000e+00
Current cartesian coordinates              R   N=           3
  0.00000000e+00  0.00000000e+00  0.00000000e+00
Integer atomic weights                     I   N=           1
           1
Real atomic weights                        R   N=           1
  1.00782503e+00
Number of primitive shells                 I                1
Number of contracted shells                I                1
Pure/Cartesian d shells                    I                1
Pure/Cartesian f shells                    I                1
Highest angular momentum                   I                1
Largest degree of contraction              I                1
Shell types                                I   N=           1
           1
Number of primitives per shell             I   N=           1
           1
Shell to atom map                          I   N=           1
           1
Primitive exponents                        R   N=           1
  1.00000000e+00
Contraction coefficients                   R   N=           1
  1.00000000e+00
Coordinates of each shell                  R   N=           3
  0.00000000e+00  0.00000000e+00  0.00000000e+00
Total Energy                               R      1.436153918929513e+00
Alpha Orbital Energies                     R   N=           3
  1.43615392e+00  2.19008553e+00  2.19008553e+00
Alpha MO coefficients                      R   N=           9
  1.00000000e+00  0.00000000e+00  0.00000000e+00  0.00000000e+00  1.00000000e+00
  0.00000000e+00  0.00000000e+00  0.00000000e+00  1.00000000e+00
Total SCF Density                          R   N=           6
  1.00000000e+00  0.00000000e+00  0.00000000e+00  0.00000000e+00  0.00000000e+00
  0.00000000e+00
Beta Orbital Energies                      R   N=           3
  2.24491375e+00  2.24491375e+00  2.35457020e+00
Beta MO coefficients                       R   N=           9
  0.00000000e+00  1.00000000e+00  0.00000000e+00  0.00000000e+00  0.00000000e+00
  1.00000000e+00  1.00000000e+00  0.00000000e+00  0.00000000e+00
Spin SCF Density                           R   N=           6
  1.00000000e+00  2.03691764e-17  4.14903349e-34  0.00000000e+00  0.00000000e+00
  0.00000000e+00
