Generated by Psi4
        SP                           RHF                      DEF2-SVP
Number of atoms                            I                6
Charge                                     I                0
Multiplicity                               I                1
Number of electrons                        I               16
Number of alpha electrons                  I                8
Number of beta electrons                   I                8
Number of basis functions                  I               48
Number of independent functions            I               48
Atomic numbers                             I   N=           6
           6           6           1           1           1           1
Nuclear charges                            R   N=           6
  6.00000000e+00  6.00000000e+00  1.00000000e+00  1.00000000e+00  1.00000000e+00
  1.00000000e+00
Current cartesian coordinates              R   N=          18
 -1.24732997e+00  1.09585435e-05 -8.35390038e-07  1.24739239e+00 -1.18556628e-05
  9.03695852e-07 -2.32419113e+00 -1.73698196e+00  1.32377097e-01 -2.32415798e+00
  1.73702431e+00 -1.32380324e-01  2.32425230e+00  1.73698195e+00 -1.32377095e-01
  2.32422336e+00 -1.73702339e+00  1.32380254e-01
Integer atomic weights                     I   N=           6
          12          12           1           1           1           1
Real atomic weights                        R   N=           6
  1.20000000e+01  1.20000000e+01  1.00782503e+00  1.00782503e+00  1.00782503e+00
  1.00782503e+00
Number of primitive shells                 I               44
Number of contracted shells                I               24
Pure/Cartesian d shells                    I                0
Pure/Cartesian f shells                    I                0
Highest angular momentum                   I                2
Largest degree of contraction              I                5
Shell types                                I   N=          24
           0           0           0           1           1          -2
           0           0           0           1           1          -2
           0           0           1           0           0           1
           0           0           1           0           0           1
Number of primitives per shell             I   N=          24
           5           1           1           3           1           1
           5           1           1           3           1           1
           3           1           1           3           1           1
           3           1           1           3           1           1
Shell to atom map                          I   N=          24
           1           1           1           1           1           1
           2           2           2           2           2           2
           3           3           3           4           4           4
           5           5           5           6           6           6
Primitive exponents                        R   N=          44
  1.23840169e+03  1.86290050e+02  4.22511763e+01  1.16765579e+01  3.59305065e+00
  4.02451474e-01  1.30901827e-01  9.46809706e+00  2.01035451e+00  5.47710047e-01
  1.52686138e-01  8.00000000e-01  1.23840169e+03  1.86290050e+02  4.22511763e+01
  1.16765579e+01  3.59305065e+00  4.02451474e-01  1.30901827e-01  9.46809706e+00
  2.01035451e+00  5.47710047e-01  1.52686138e-01  8.00000000e-01  1.30107010e+01
  1.96225720e+00  4.44537960e-01  1.21949620e-01  8.00000000e-01  1.30107010e+01
  1.96225720e+00  4.44537960e-01  1.21949620e-01  8.00000000e-01  1.30107010e+01
  1.96225720e+00  4.44537960e-01  1.21949620e-01  8.00000000e-01  1.30107010e+01
  1.96225720e+00  4.44537960e-01  1.21949620e-01  8.00000000e-01
Contraction coefficients                   R   N=          44
  5.51736505e-03  4.10888286e-02  1.82253821e-01  4.68284594e-01  4.45758173e-01
  1.00000000e+00  1.00000000e+00  5.68883320e-02  3.12940593e-01  7.60650165e-01
  1.00000000e+00  1.00000000e+00  5.51736505e-03  4.10888286e-02  1.82253821e-01
  4.68284594e-01  4.45758173e-01  1.00000000e+00  1.00000000e+00  5.68883320e-02
  3.12940593e-01  7.60650165e-01  1.00000000e+00  1.00000000e+00  3.34854848e-02
  2.34721871e-01  8.13770285e-01  1.00000000e+00  1.00000000e+00  3.34854848e-02
  2.34721871e-01  8.13770285e-01  1.00000000e+00  1.00000000e+00  3.34854848e-02
  2.34721871e-01  8.13770285e-01  1.00000000e+00  1.00000000e+00  3.34854848e-02
  2.34721871e-01  8.13770285e-01  1.00000000e+00  1.00000000e+00
Coordinates of each shell                  R   N=          72
 -1.24732997e+00  1.09585435e-05 -8.35390038e-07 -1.24732997e+00  1.09585435e-05
 -8.35390038e-07 -1.24732997e+00  1.09585435e-05 -8.35390038e-07 -1.24732997e+00
  1.09585435e-05 -8.35390038e-07 -1.24732997e+00  1.09585435e-05 -8.35390038e-07
 -1.24732997e+00  1.09585435e-05 -8.35390038e-07  1.24739239e+00 -1.18556628e-05
  9.03695852e-07  1.24739239e+00 -1.18556628e-05  9.03695852e-07  1.24739239e+00
 -1.18556628e-05  9.03695852e-07  1.24739239e+00 -1.18556628e-05  9.03695852e-07
  1.24739239e+00 -1.18556628e-05  9.03695852e-07  1.24739239e+00 -1.18556628e-05
  9.03695852e-07 -2.32419113e+00 -1.73698196e+00  1.32377097e-01 -2.32419113e+00
 -1.73698196e+00  1.32377097e-01 -2.32419113e+00 -1.73698196e+00  1.32377097e-01
 -2.32415798e+00  1.73702431e+00 -1.32380324e-01 -2.32415798e+00  1.73702431e+00
 -1.32380324e-01 -2.32415798e+00  1.73702431e+00 -1.32380324e-01  2.32425230e+00
  1.73698195e+00 -1.32377095e-01  2.32425230e+00  1.73698195e+00 -1.32377095e-01
  2.32425230e+00  1.73698195e+00 -1.32377095e-01  2.32422336e+00 -1.73702339e+00
  1.32380254e-01  2.32422336e+00 -1.73702339e+00  1.32380254e-01  2.32422336e+00
 -1.73702339e+00  1.32380254e-01
Total Energy                               R     -7.797797285494396e+01
Alpha Orbital Energies                     R   N=          48
 -1.12341262e+01 -1.12324008e+01 -1.02502182e+00 -7.81989454e-01 -6.42529729e-01
 -5.90929479e-01 -5.03363700e-01 -3.79989372e-01  1.68048849e-01  2.06146265e-01
  2.31596392e-01  2.40816498e-01  3.04511616e-01  4.87802362e-01  5.63307472e-01
  6.15924145e-01  6.20330247e-01  7.01393434e-01  7.53603887e-01  8.19259020e-01
  8.89306709e-01  8.90823046e-01  9.05925738e-01  9.49507492e-01  1.09957060e+00
  1.28011491e+00  1.42446325e+00  1.49514170e+00  1.53245639e+00  1.84999173e+00
  1.90444671e+00  1.90493801e+00  1.97956872e+00  2.03439285e+00  2.06694750e+00
  2.11376362e+00  2.21992140e+00  2.36910500e+00  2.47775364e+00  2.57799023e+00
  2.71634354e+00  2.71695149e+00  2.82370978e+00  3.04497574e+00  3.16112322e+00
  3.19518029e+00  3.44023761e+00  3.71984234e+00
Alpha MO coefficients                      R   N=        2304
  7.00646933e-01  2.31167443e-02 -1.14070211e-02 -1.24908610e-03  1.15491055e-08
 -8.79909917e-10  6.05514342e-04 -5.55079748e-09  4.22262484e-10 -8.19916092e-04
  2.37744560e-10 -9.50308126e-05  1.80434866e-04 -3.12155847e-09  7.00646694e-01
  2.31167352e-02 -1.14070104e-02  1.24908680e-03 -1.12430193e-08  8.56672164e-10
 -6.05513766e-04  1.50158607e-09 -1.13791365e-10 -8.19915984e-04  3.72489096e-10
 -9.50306762e-05  1.80436458e-04 -4.88902663e-09 -1.46817881e-03  3.35564613e-03
 -6.44719833e-05 -7.42281268e-04  5.65699828e-05 -1.46817801e-03  3.35564520e-03
 -6.44578318e-05  7.42282324e-04 -5.65700628e-05 -1.46817631e-03  3.35564348e-03
  6.44706135e-05  7.42280959e-04 -5.65699592e-05 -1.46818004e-03  3.35564062e-03
  6.44585911e-05 -7.42283302e-04  5.65701373e-05  7.00547450e-01  2.75830826e-02
 -2.36601066e-02  6.40464953e-04 -5.29434725e-09  4.04416558e-10 -1.92521196e-03
  2.03272296e-08 -1.55031632e-09 -1.67625156e-03 -1.05196272e-10 -2.20248133e-04
  3.01591674e-05  1.38169406e-09 -7.00547688e-01 -2.75830892e-02  2.36601117e-02
  6.40463125e-04 -6.84290857e-09  5.22320787e-10 -1.92520933e-03  1.48094631e-08
 -1.12956788e-09  1.67625158e-03 -2.20447195e-10  2.20247978e-04 -3.01612209e-05
  2.88992026e-09 -1.94084782e-03  4.25118572e-03 -8.51135388e-04 -1.05158776e-03
  8.01425333e-05 -1.94084832e-03  4.25118414e-03 -8.51115432e-04  1.05160305e-03
 -8.01436984e-05  1.94084771e-03 -4.25118455e-03 -8.51134351e-04 -1.05158777e-03
  8.01425339e-05  1.94084763e-03 -4.25118888e-03 -8.51116089e-04  1.05160286e-03
 -8.01436842e-05  2.01092994e-01 -3.79933476e-01 -1.16485458e-01 -1.22269864e-01
  1.08364684e-06 -8.26129434e-08 -2.13359204e-02  1.91147763e-07 -1.45675426e-08
  9.83019391e-03 -2.03275206e-08  1.81807634e-04 -1.46546678e-02  2.66671324e-07
  2.01092988e-01 -3.79933472e-01 -1.16485498e-01  1.22269859e-01 -1.16127540e-06
  8.85259579e-08  2.13359599e-02 -1.94378359e-07  1.48133643e-08  9.83019435e-03
 -2.05681441e-08  1.81807491e-04 -1.46546704e-02  2.69828933e-07 -1.06998470e-01
 -9.53942875e-03 -9.79034272e-03 -1.34948648e-02  1.02845687e-03 -1.06998529e-01
 -9.53943789e-03 -9.79009250e-03  1.34950556e-02 -1.02847141e-03 -1.06998518e-01
 -9.53944550e-03  9.79033649e-03  1.34948756e-02 -1.02845769e-03 -1.06998430e-01
 -9.53943636e-03  9.79010224e-03 -1.34950289e-02  1.02846937e-03  1.51844096e-01
 -3.00781206e-01 -1.10701316e-01  1.61749883e-01 -1.47598798e-06  1.12464523e-07
  6.55932308e-02 -5.98493166e-07  4.56107566e-08  4.44946395e-03  1.55572580e-08
  1.42993636e-03  1.09471911e-02 -2.04105324e-07 -1.51844103e-01  3.00781215e-01
  1.10701316e-01  1.61750060e-01 -1.46951549e-06  1.11977585e-07  6.55932510e-02
 -6.05039273e-07  4.61103740e-08 -4.44946528e-03 -1.43844696e-08 -1.42993627e-03
 -1.09471875e-02  1.88727542e-07 -1.95646859e-01 -3.88102670e-02 -7.37207037e-03
 -1.76974645e-02  1.34874111e-03 -1.95646793e-01 -3.88102559e-02 -7.37172526e-03
  1.76975999e-02 -1.34875142e-03  1.95646832e-01  3.88102805e-02 -7.37204717e-03
 -1.76974707e-02  1.34874158e-03  1.95647000e-01  3.88102973e-02 -7.37176726e-03
  1.76976043e-02 -1.34875176e-03 -4.63680363e-08  9.50914388e-08  5.93970066e-08
 -3.26286309e-06 -3.13332957e-01  2.38794115e-02 -1.25425841e-06 -1.19833653e-01
  9.13264011e-03  7.83189918e-10 -2.20505521e-04  4.00669346e-09  5.09942286e-08
  2.89335634e-03 -4.24281695e-08  8.29172674e-08  1.41542622e-07 -2.45487099e-06
 -3.13332735e-01  2.38793946e-02 -9.90459771e-07 -1.19833642e-01  9.13263924e-03
  1.17971073e-09  2.20504536e-04 -2.72443651e-09 -3.76470982e-08 -2.89334342e-03
  2.08084828e-01  5.66141896e-02  9.71791306e-03  9.45711458e-03 -7.20735969e-04
 -2.08084503e-01 -5.66141075e-02 -9.71773230e-03  9.45727152e-03 -7.20747923e-04
 -2.08084340e-01 -5.66140414e-02  9.71790017e-03  9.45708595e-03 -7.20733786e-04
  2.08084572e-01  5.66141001e-02 -9.71774034e-03  9.45726966e-03 -7.20747782e-04
  1.30134192e-02 -3.41181206e-02  2.67148762e-02 -4.06980754e-01  4.23960914e-06
 -3.23120233e-07 -1.41638744e-01  1.49908687e-06 -1.14249838e-07 -1.78005740e-03
 -2.77636321e-08 -1.77238519e-03 -2.00380721e-02  3.64194788e-07  1.30135186e-02
 -3.41183282e-02  2.67147697e-02  4.06980684e-01 -3.47667824e-06  2.64992550e-07
  1.41638680e-01 -1.17344992e-06  8.94392567e-08 -1.78005873e-03 -2.55466680e-08
 -1.77238377e-03 -2.00380514e-02  3.35103181e-07  1.70249653e-01  5.77894105e-02
 -1.41745155e-03  1.16756446e-02 -8.89812312e-04  1.70250234e-01  5.77896154e-02
 -1.41764803e-03 -1.16756398e-02  8.89811946e-04  1.70249830e-01  5.77894727e-02
  1.41744947e-03 -1.16756474e-02  8.89812528e-04  1.70249922e-01  5.77895001e-02
  1.41763731e-03  1.16756284e-02 -8.89811077e-04  5.18474255e-08 -1.21924488e-07
  7.65359037e-08 -3.01633325e-06 -2.96819997e-01  2.26209428e-02 -1.24881794e-06
 -1.31454743e-01  1.00182948e-02 -6.84724252e-09 -2.22278053e-03  4.06583668e-08
  5.42320269e-07  2.91661457e-02 -1.47472312e-09  4.61598198e-09 -9.10991207e-08
  2.89540318e-06  2.96820225e-01 -2.26209601e-02  1.37534612e-06  1.31454875e-01
 -1.00183048e-02 -3.10594250e-09 -2.22278171e-03  3.63887186e-08  4.80121793e-07
  2.91661611e-02  2.60471940e-01  1.21775160e-01  9.31883388e-03  8.67560243e-03
 -6.61176163e-04 -2.60471858e-01 -1.21775117e-01 -9.31867213e-03  8.67577653e-03
 -6.61189425e-04  2.60472241e-01  1.21775298e-01 -9.31883623e-03 -8.67562367e-03
  6.61177780e-04 -2.60471878e-01 -1.21775144e-01  9.31870113e-03 -8.67574764e-03
  6.61187223e-04  3.17485592e-11 -7.27616641e-11 -4.38565178e-11 -2.07134097e-11
  2.92859610e-02  3.84274827e-01 -4.02608244e-12  2.23531880e-02  2.93306661e-01
  3.36555242e-08  2.82268317e-02 -2.53414684e-07  1.94229012e-08  2.15119449e-03
 -2.86338600e-11  6.60571367e-11  3.27056184e-11 -4.16905426e-11  2.92859601e-02
  3.84274816e-01 -1.56732731e-11  2.23531876e-02  2.93306657e-01 -3.44822448e-08
 -2.82268284e-02  2.59641504e-07 -1.98996643e-08 -2.15119425e-03  0.00000000e+00
 -8.92499993e-12  1.36168633e-12  7.96244611e-04  1.04478989e-02  1.84312096e-11
  3.78445549e-12  1.60326351e-12  7.96244812e-04  1.04479016e-02 -1.90029473e-11
 -6.11996542e-12  0.00000000e+00  7.96244541e-04  1.04478980e-02  0.00000000e+00
  6.39347551e-12  0.00000000e+00  7.96244323e-04  1.04478952e-02  3.60001509e-11
 -4.70227684e-11 -6.06047083e-10  4.91987890e-11  2.61021343e-02  3.42498344e-01
  1.46864781e-10  5.82938514e-02  7.64900959e-01 -2.66345635e-08 -2.17512498e-02
  2.00552068e-07 -1.53731164e-08 -1.65768405e-03  2.60450314e-11 -3.11958812e-11
 -5.18373703e-10 -3.80942034e-11 -2.61021346e-02 -3.42498349e-01 -1.00265297e-10
 -5.82938518e-02 -7.64900965e-01 -2.57920792e-08 -2.17512529e-02  1.94206916e-07
 -1.48866590e-08 -1.65768429e-03  6.69851668e-11  3.59940381e-10  0.00000000e+00
  1.33516746e-03  1.75193583e-02  5.53742525e-11  3.12291321e-10  0.00000000e+00
  1.33516697e-03  1.75193519e-02  4.24118634e-11  2.49866866e-10  0.00000000e+00
 -1.33516660e-03 -1.75193470e-02  5.46270885e-11  3.05322687e-10  0.00000000e+00
 -1.33516835e-03 -1.75193700e-02  7.24999910e-02 -1.16752906e-01 -1.60295202e+00
  1.31183531e-01 -1.52110192e-06  1.15820515e-07  5.69242838e-01 -6.45672986e-06
  4.91636107e-07  3.16398464e-03 -4.44580338e-09  1.10146663e-04 -4.04329052e-03
  5.84504208e-08  7.25000060e-02 -1.16752930e-01 -1.60295129e+00 -1.31183528e-01
  8.15421428e-07 -6.20488764e-08 -5.69243770e-01  3.80584534e-06 -2.89649064e-07
  3.16398881e-03 -7.30241814e-09  1.10147297e-04 -4.04328947e-03  9.59300563e-08
  2.72406167e-03  1.12525257e+00  4.91941224e-03  2.04235556e-03 -1.55649922e-04
  2.72421442e-03  1.12525542e+00  4.91938123e-03 -2.04245952e-03  1.55657838e-04
  2.72418149e-03  1.12525552e+00 -4.91940115e-03 -2.04238136e-03  1.55651887e-04
  2.72399746e-03  1.12525298e+00 -4.91937237e-03  2.04245378e-03 -1.55657399e-04
  2.28481230e-08  9.01134936e-09  6.38214634e-07 -2.21998616e-06 -2.17929633e-01
  1.66086308e-02 -7.65621096e-06 -7.57125866e-01  5.77013040e-02  3.44435127e-09
  8.99361914e-04 -1.56447732e-08 -2.09986233e-07 -1.18009494e-02 -2.12895363e-07
  3.56502127e-07  4.53648612e-06 -1.59509616e-06 -2.17929639e-01  1.66086312e-02
 -4.93329056e-06 -7.57125145e-01  5.77012489e-02  1.31205415e-09 -8.99361587e-04
  1.59049655e-08  2.05139216e-07  1.18009451e-02 -2.77846402e-02 -1.16437303e+00
 -2.64763111e-03 -5.27424126e-03  4.01955095e-04  2.77846470e-02  1.16437218e+00
  2.64751826e-03 -5.27428755e-03  4.01958619e-04  2.77846293e-02  1.16436883e+00
 -2.64762375e-03 -5.27422220e-03  4.01953642e-04 -2.77846460e-02 -1.16437500e+00
  2.64752402e-03 -5.27429316e-03  4.01959046e-04  9.20741276e-02 -1.16546927e-01
 -2.27997832e+00  8.61436446e-02 -4.06378075e-07  3.09214494e-08  2.13563144e-01
  2.50445567e-07 -1.92955964e-08  4.75671527e-03  1.18935628e-08  1.22373043e-03
  7.72500656e-03 -1.56061330e-07 -9.20740878e-02  1.16546833e-01  2.27997820e+00
  8.61436772e-02 -6.34887776e-07  4.83599996e-08  2.13563442e-01 -2.15956148e-06
  1.64483991e-07 -4.75671737e-03 -8.07730136e-09 -1.22373156e-03 -7.72501775e-03
  1.06010875e-07  5.68664995e-06  1.27072744e+00 -1.68049383e-04  6.12727022e-03
 -4.66965265e-04  5.65201113e-06  1.27072228e+00 -1.68210530e-04 -6.12724446e-03
  4.66963302e-04 -5.66992355e-06 -1.27072475e+00 -1.68100651e-04  6.12727341e-03
 -4.66965508e-04 -5.63363350e-06 -1.27072474e+00 -1.68179844e-04 -6.12726484e-03
  4.66964857e-04  6.48737305e-08 -3.31470804e-08 -5.39906948e-06 -1.65683920e-06
 -1.91913560e-01  1.46259204e-02 -1.64868196e-05 -1.62202853e+00  1.23616383e-01
  1.32174420e-08 -1.58691596e-03  3.31035695e-08  4.08968719e-07  2.08226685e-02
 -8.02105893e-08  5.60640438e-08  4.90932523e-06  1.74728850e-06  1.91913660e-01
 -1.46259280e-02  1.27492495e-05  1.62202839e+00 -1.23616372e-01 -1.85185852e-08
 -1.58691413e-03  2.51802920e-08  3.60544732e-07  2.08226445e-02  2.74830218e-02
 -1.66396613e+00 -1.38564005e-02 -9.28620167e-03  7.07710525e-04 -2.74830629e-02
  1.66396924e+00  1.38562341e-02 -9.28648014e-03  7.07731749e-04  2.74829486e-02
 -1.66396920e+00  1.38564090e-02  9.28621525e-03 -7.07711558e-04 -2.74829884e-02
  1.66396669e+00 -1.38562298e-02  9.28645402e-03 -7.07729760e-04  5.60321804e-02
 -7.81524506e-02 -5.52122638e+00 -1.45815001e-01  1.44133204e-06 -1.09814408e-07
 -3.63612344e+00  3.36048198e-05 -2.56158732e-06  5.11264813e-03  3.46232921e-08
  2.36850703e-03  2.20424188e-02 -4.54221592e-07 -5.60321749e-02  7.81522633e-02
  5.52122715e+00 -1.45815160e-01  1.17185149e-06 -8.92845096e-08 -3.63612268e+00
  3.25884951e-05 -2.48416501e-06 -5.11258372e-03 -3.38222409e-08 -2.36849405e-03
 -2.20423610e-02  4.43697175e-07 -1.13451540e-01 -2.26049235e-01 -4.11325679e-03
  6.55433717e-03 -4.99512454e-04 -1.13451316e-01 -2.26049322e-01 -4.11339465e-03
 -6.55424636e-03  4.99505538e-04  1.13451277e-01  2.26048865e-01 -4.11320509e-03
  6.55429153e-03 -4.99508976e-04  1.13450325e-01  2.26050155e-01 -4.11344453e-03
 -6.55424843e-03  4.99505694e-04  9.13026160e-02 -7.85955135e-01  6.68773478e-01
 -3.77630815e-01  3.67502196e-06 -2.80102789e-07  7.70942227e-01 -8.05746520e-06
  6.14158434e-07  2.92427903e-02 -3.38293657e-08  1.09125939e-03 -3.64142383e-02
  4.43754935e-07  9.13026529e-02 -7.85955791e-01  6.68779164e-01  3.77630594e-01
 -2.97611234e-06  2.26845620e-07 -7.70944737e-01  5.48348858e-06 -4.17995963e-07
  2.92428210e-02 -7.01016605e-08  1.09126352e-03 -3.64142376e-02  9.19680075e-07
  4.86129156e-02 -1.81945116e-01  3.06459016e-02 -2.64637885e-03  2.01683132e-04
  4.86157530e-02 -1.81946291e-01  3.06456338e-02  2.64579522e-03 -2.01638638e-04
  4.86156536e-02 -1.81946581e-01 -3.06455917e-02  2.64635214e-03 -2.01681096e-04
  4.86121909e-02 -1.81943999e-01 -3.06459967e-02 -2.64582573e-03  2.01640963e-04
  8.10799965e-02 -6.80251554e-01  1.83775398e+00  1.34887655e-01  1.22043053e-07
 -9.21152812e-09 -7.87222984e-01 -3.78767081e-06  2.88925021e-07  5.62972231e-02
  2.04221659e-07  1.00265526e-02  3.32893139e-02 -2.67979943e-06  8.10800286e-02
 -6.80250793e-01  1.83773792e+00 -1.34887364e-01  2.35558173e-06 -1.79573975e-07
  7.87231196e-01 -1.70185730e-05  1.29674865e-06  5.62971802e-02 -1.11048381e-07
  1.00265453e-02  3.32892934e-02  1.45691724e-06 -4.62873407e-01 -4.47491617e-01
 -1.49670243e-02  9.87406860e-03 -7.52512418e-04 -4.62850597e-01 -4.47496782e-01
 -1.49693375e-02 -9.87385408e-03  7.52496113e-04 -4.62850233e-01 -4.47497049e-01
  1.49691842e-02 -9.87408435e-03  7.52513622e-04 -4.62872725e-01 -4.47491658e-01
  1.49671810e-02  9.87379135e-03 -7.52491329e-04  1.96780657e-06 -1.66706633e-05
  3.70003781e-05  1.14380757e-06 -6.32918881e-02  4.82353679e-03 -1.06794152e-05
  5.36967961e-01 -4.09228543e-02  1.28671833e-06 -7.71967793e-03  3.60707937e-07
  2.47706840e-06  1.01293514e-01  1.88662164e-06 -1.58371796e-05  4.08105149e-05
 -2.17093344e-06 -6.32919393e-02  4.82354070e-03  1.54753231e-05  5.36968384e-01
 -4.09228865e-02  1.23826942e-06  7.71968243e-03  7.08468741e-08 -1.22062271e-06
 -1.01293573e-01  5.66090346e-01 -1.35797508e-01 -5.39725293e-02  1.55408613e-03
 -1.18438423e-04 -5.66109501e-01  1.35777847e-01  5.39721845e-02  1.55269488e-03
 -1.18332402e-04 -5.66109060e-01  1.35779060e-01 -5.39721841e-02  1.55370606e-03
 -1.18409459e-04  5.66091650e-01 -1.35797552e-01  5.39724636e-02  1.55302808e-03
 -1.18357791e-04  6.67743929e-11 -5.49731041e-10  2.61672819e-09  4.03563671e-11
  5.30834434e-02  6.96532753e-01  7.27307026e-10 -4.67377283e-02 -6.13267649e-01
  7.72456570e-08  6.41159217e-02 -5.81594467e-07  4.45737749e-08  4.88633720e-03
 -6.45885537e-11  5.62618422e-10 -2.71734082e-09  2.15177866e-11  5.30834424e-02
  6.96532740e-01  7.01080549e-10 -4.67377265e-02 -6.13267626e-01 -7.73247625e-08
 -6.41159226e-02  5.82142159e-07 -4.46186573e-08 -4.88633727e-03 -1.09282216e-10
 -1.63092225e-10 -1.88614668e-12  1.01313789e-03  1.32938573e-02 -1.02040673e-10
 -1.78582293e-10  0.00000000e+00  1.01313786e-03  1.32938570e-02  1.43222218e-10
  2.09929578e-10 -3.18872515e-12  1.01313749e-03  1.32938520e-02  1.50873803e-10
  1.94420895e-10 -4.96866973e-12  1.01313797e-03  1.32938585e-02  1.50332303e-02
 -6.17985727e-01  4.60389217e+00  1.64432448e-01 -1.94678855e-06  1.48122817e-07
  8.22464797e-01 -6.17563142e-06  4.71249191e-07  6.56498542e-02  4.03415823e-08
  1.03554533e-02  2.13806765e-02 -5.29482017e-07 -1.50332814e-02  6.17985988e-01
 -4.60389545e+00  1.64433156e-01 -1.00166550e-06  7.60774082e-08  8.22461826e-01
 -1.00319820e-05  7.65065727e-07 -6.56498760e-02 -3.13735096e-08 -1.03554600e-02
 -2.13807261e-02  4.11818192e-07 -5.65989179e-01 -3.88125064e-01 -9.36613682e-03
  3.16572700e-02 -2.41263155e-03 -5.65988264e-01 -3.88127001e-01 -9.36700285e-03
 -3.16570324e-02  2.41261346e-03  5.65989826e-01  3.88128087e-01 -9.36643570e-03
  3.16572008e-02 -2.41262628e-03  5.65988869e-01  3.88126478e-01 -9.36689597e-03
 -3.16570921e-02  2.41261800e-03  6.27535712e-11 -2.91554619e-10  4.26141272e-10
  6.78152547e-11  5.95088386e-02  7.80843377e-01  6.87774463e-12 -8.34356550e-02
 -1.09479835e+00 -3.95554666e-08 -3.26354423e-02  2.97631004e-07 -2.28248795e-08
 -2.48717902e-03  3.87132548e-11 -1.64334968e-10  1.64901044e-10 -4.23557920e-11
 -5.95088402e-02 -7.80843397e-01 -1.06418154e-11  8.34356551e-02  1.09479836e+00
 -3.89603547e-08 -3.26354411e-02  2.93202173e-07 -2.24826572e-08 -2.48717893e-03
  1.84177087e-10 -2.09584749e-10  9.45734197e-12  2.44027838e-03  3.20200372e-02
  1.75663564e-10 -1.79608471e-10  8.92149488e-12  2.44028068e-03  3.20200668e-02
  1.31198141e-10 -9.90885904e-11 -8.26950951e-12 -2.44028069e-03 -3.20200674e-02
  1.38955827e-10 -1.33212685e-10 -8.44971348e-12 -2.44027545e-03 -3.20199984e-02
  1.54713230e-01 -8.32622951e-01  1.73715460e+00  4.07515736e-01 -5.53718080e-06
  4.21745716e-07 -5.75805610e-01  8.70770242e-06 -6.63265065e-07 -8.42074349e-02
 -6.40974087e-08 -1.60050371e-02 -6.29382815e-02  8.41052478e-07  1.54712043e-01
 -8.32615723e-01  1.73713441e+00 -4.07514470e-01  2.16867082e-06 -1.65061209e-07
  5.75804082e-01 -3.12026814e-06  2.37488011e-07 -8.42070612e-02 -1.03160446e-07
 -1.60049662e-02 -6.29380036e-02  1.35376585e-06  4.26217564e-01 -9.24310442e-01
 -3.16983941e-02 -1.22392406e-01  9.32764518e-03  4.26218423e-01 -9.24315485e-01
 -3.16964197e-02  1.22393497e-01 -9.32772830e-03  4.26216827e-01 -9.24307637e-01
  3.16982781e-02  1.22392319e-01 -9.32763852e-03  4.26215989e-01 -9.24304276e-01
  3.16960552e-02 -1.22392493e-01  9.32765181e-03  2.18301203e-01 -1.31546760e+00
  4.10058331e+00  1.80888530e-01 -1.32203768e-06  1.00528243e-07  8.19312852e-02
 -1.95955589e-06  1.49767285e-07 -7.87382157e-02 -4.31481308e-08 -1.25654699e-02
 -2.75412065e-02  5.65782541e-07 -2.18302036e-01  1.31547199e+00 -4.10059285e+00
  1.80890868e-01 -2.49772776e-06  1.90219761e-07  8.19275121e-02  1.25824328e-06
 -9.56263972e-08  7.87386806e-02  2.12623632e-08  1.25655509e-02  2.75414575e-02
 -2.78617200e-07  3.18294827e-01 -1.20921077e+00 -5.29093278e-02 -1.03903405e-01
  7.91858029e-03  3.18294759e-01 -1.20920982e+00 -5.29071564e-02  1.03904329e-01
 -7.91865070e-03 -3.18296832e-01  1.20921384e+00 -5.29091717e-02 -1.03903954e-01
  7.91862215e-03 -3.18297328e-01  1.20921697e+00 -5.29077105e-02  1.03905116e-01
 -7.91871065e-03 -4.31463922e-07  2.26904296e-06 -5.85436597e-06 -7.52405866e-06
 -6.73136351e-01  5.13003807e-02  1.37008748e-05  1.22724713e+00 -9.35297056e-02
  2.48632676e-07  1.06900623e-02 -1.54623378e-07 -2.44789540e-06 -1.40269321e-01
 -2.84254925e-07  1.26799224e-06 -2.43743121e-06 -5.22384265e-06 -6.73136746e-01
  5.13004107e-02  9.28632334e-06  1.22724806e+00 -9.35297767e-02  1.81681007e-07
 -1.06900668e-02  2.17879716e-07  2.52771335e-06  1.40269380e-01 -1.57443916e-01
  1.04545432e+00  5.71126167e-02  1.04565644e-01 -7.96905017e-03  1.57441724e-01
 -1.04544833e+00 -5.71104568e-02  1.04566067e-01 -7.96908235e-03  1.57441971e-01
 -1.04545027e+00  5.71124926e-02  1.04565149e-01 -7.96901249e-03 -1.57443706e-01
  1.04545316e+00 -5.71108056e-02  1.04566500e-01 -7.96911534e-03  1.07303571e-07
 -3.12269902e-07  7.88312151e-07 -6.46532217e-06 -7.23454831e-01  5.51352013e-02
  1.86913527e-05  2.11324001e+00 -1.61052091e-01 -1.01769403e-07  4.85521922e-03
 -1.13320059e-07 -1.30203949e-06 -6.37076081e-02 -1.63686499e-07  7.13559332e-07
 -7.37192237e-07  6.79680689e-06  7.23454518e-01 -5.51351775e-02 -1.92100316e-05
 -2.11323904e+00  1.61052017e-01  1.71807249e-07  4.85521393e-03 -4.33869711e-08
 -8.63491511e-07 -6.37075387e-02 -1.50208827e-01  1.25514417e+00  1.16805671e-01
  9.47818020e-02 -7.22341397e-03  1.50209831e-01 -1.25514646e+00 -1.16803958e-01
  9.47842468e-02 -7.22360031e-03 -1.50210205e-01  1.25514603e+00 -1.16805649e-01
 -9.47821286e-02  7.22343884e-03  1.50208460e-01 -1.25514357e+00  1.16803968e-01
 -9.47836691e-02  7.22355628e-03  1.19738567e-01 -6.56343144e-01  4.62828264e+00
 -8.11821056e-01  7.36593588e-06 -5.61480746e-07  2.76592309e+00 -2.27678478e-05
  1.73556786e-06 -6.66448988e-02  2.52617625e-07  5.17619040e-03  1.82957090e-01
 -3.31410484e-06 -1.19738535e-01  6.56342955e-01 -4.62828200e+00 -8.11821113e-01
  7.62489737e-06 -5.81222213e-07  2.76592323e+00 -2.84261207e-05  2.16680125e-06
  6.66448507e-02 -2.48081584e-07 -5.17619974e-03 -1.82957128e-01  3.25459168e-06
 -6.19786057e-02  1.41193483e-01 -6.10183822e-02  7.19824438e-02 -5.48585257e-03
 -6.19796196e-02  1.41191575e-01 -6.10198297e-02 -7.19812507e-02  5.48576161e-03
  6.19797689e-02 -1.41191338e-01 -6.10185473e-02  7.19823942e-02 -5.48584878e-03
  6.19788434e-02 -1.41194577e-01 -6.10194784e-02 -7.19815448e-02  5.48578403e-03
 -1.55816243e-07  7.74385266e-07  9.63344061e-06 -4.22443729e-07 -1.27123486e-01
  9.68820539e-03  3.30506466e-05  3.08090699e+00 -2.34798939e-01  6.14910640e-08
 -8.94074286e-03  1.70160243e-07  2.12141270e-06  1.17315679e-01  1.01545871e-07
 -2.06710111e-07 -7.97067014e-06  1.43535947e-06  1.27123350e-01 -9.68819498e-03
 -2.09362080e-05 -3.08090552e+00  2.34798828e-01 -1.78741181e-07 -8.94072731e-03
  1.36196972e-07  2.09360668e-06  1.17315476e-01  7.83693606e-01  9.00955605e-01
 -1.23985575e-01  4.69642187e-02 -3.57918849e-03 -7.83693643e-01 -9.00956254e-01
  1.23986469e-01  4.69620060e-02 -3.57902107e-03  7.83692802e-01  9.00954909e-01
  1.23985568e-01 -4.69642599e-02  3.57919174e-03 -7.83693376e-01 -9.00955961e-01
 -1.23986502e-01 -4.69620207e-02  3.57902214e-03  1.33589966e-12 -1.25867464e-11
  5.23565309e-11  0.00000000e+00  5.49899891e-09  6.74308972e-08  0.00000000e+00
 -5.79723186e-09 -3.93617754e-09  4.35440166e-02 -3.35311734e-06 -3.27959738e-01
  2.51401497e-02 -2.55814539e-07 -1.35161311e-12  1.26549174e-11 -5.22904662e-11
  0.00000000e+00  8.59185215e-09  1.17320515e-07  0.00000000e+00  1.43462898e-10
 -7.01774991e-08  4.35439691e-02 -2.66942953e-06 -3.27959380e-01  2.51401223e-02
 -2.03682862e-07 -1.21662127e-09 -1.81507529e-09  4.37964438e-10  2.66454292e-02
  3.49627173e-01  1.21061087e-09  1.78837533e-09 -4.35800068e-10 -2.66454084e-02
 -3.49626896e-01 -1.21940178e-09 -1.77471726e-09 -4.06950560e-10 -2.66453688e-02
 -3.49626382e-01  1.22524760e-09  1.80138762e-09  4.09187563e-10  2.66453770e-02
  3.49626484e-01  0.00000000e+00  5.69628131e-12 -1.99809967e-11 -1.62823969e-12
 -5.38658095e-09 -7.10445855e-08  8.32379365e-12  3.82153752e-09  5.32551012e-08
  3.40131735e-02 -1.80795258e-06 -2.56176447e-01  1.96375149e-02 -1.37903548e-07
  0.00000000e+00  5.64707462e-12 -1.99462887e-11  1.63778154e-12 -1.44867642e-08
 -1.89895302e-07 -8.50013346e-12  2.28482702e-08  2.94716673e-07 -3.40132401e-02
  1.65732570e-06  2.56176949e-01 -1.96375533e-02  1.26372891e-07 -1.54543888e-11
 -6.41829514e-11  9.55449388e-11  3.04535225e-02  3.99594950e-01  2.11352043e-11
  8.04360365e-11 -9.77278518e-11 -3.04535961e-02 -3.99595915e-01 -1.13951565e-10
 -1.21233350e-10  8.38376156e-12  3.04535766e-02  3.99595659e-01  1.19808364e-10
  1.37574795e-10 -6.14636512e-12 -3.04536281e-02 -3.99596335e-01 -1.34577905e-11
  9.37821061e-11  2.64452484e-11  5.50982774e-11  6.30709351e-03  8.27583314e-02
  2.67013989e-10 -1.01756695e-02 -1.33519728e-01 -4.94645656e-07 -4.14975013e-01
  3.72545377e-06 -2.85466962e-07 -3.16256523e-02  1.39009945e-11 -9.20488667e-11
 -9.90182800e-11  6.11256389e-11  6.30709153e-03  8.27583057e-02  2.10964337e-10
 -1.01756904e-02 -1.33520008e-01  3.92553905e-07  4.14975083e-01 -2.95631732e-06
  2.26527618e-07  3.16256576e-02  7.91754504e-12  2.86702962e-11 -1.13923880e-10
  2.33721591e-02  3.06677057e-01  8.86451141e-11  1.34489082e-10 -1.47892965e-10
  2.33720911e-02  3.06676168e-01 -7.04961732e-11 -1.04380520e-10 -1.27322798e-10
  2.33721926e-02  3.06677498e-01  1.01831196e-11  1.46960444e-12 -9.33518250e-11
  2.33720850e-02  3.06676088e-01 -1.08109588e-07  7.02473340e-07  5.41739668e-06
 -1.28267523e-07 -7.31258614e-02  5.57299353e-03  2.02437686e-05  1.87928705e+00
 -1.43222307e-01 -2.20188113e-07  3.72844633e-03 -9.67167761e-08 -8.82078977e-07
 -4.89226925e-02  1.16022708e-07 -6.94816791e-07 -4.06970841e-06  9.56659909e-07
  7.31244018e-02 -5.57288229e-03 -1.25717919e-05 -1.87928090e+00  1.43221839e-01
 -2.35139924e-07  3.72832093e-03 -1.01782108e-07 -9.21952105e-07 -4.89210474e-02
  4.66654577e-01  5.76628626e-01  3.44656671e-01 -3.54992457e-01  2.70543226e-02
 -4.66654389e-01 -5.76629113e-01 -3.44664204e-01 -3.54986221e-01  2.70538479e-02
  4.66651485e-01  5.76626346e-01 -3.44655399e-01  3.54988892e-01 -2.70540510e-02