Generated by Psi4
        SP                           RHF                        STO-3G
Number of atoms                            I                2
Charge                                     I               -1
Multiplicity                               I                1
Number of electrons                        I               10
Number of alpha electrons                  I                5
Number of beta electrons                   I                5
Number of basis functions                  I                6
Number of independent functions            I                6
Atomic numbers                             I   N=           2
           8           1
Nuclear charges                            R   N=           2
  8.00000000e+00  1.00000000e+00
Current cartesian coordinates              R   N=           6
  0.00000000e+00  0.00000000e+00  0.00000000e+00  0.00000000e+00  0.00000000e+00
  1.51178090e+00
Integer atomic weights                     I   N=           2
          16           1
Real atomic weights                        R   N=           2
  1.59949146e+01  1.00782503e+00
Number of primitive shells                 I               12
Number of contracted shells                I                4
Pure/Cartesian d shells                    I                0
Pure/Cartesian f shells                    I                0
Highest angular momentum                   I                1
Largest degree of contraction              I                3
Shell types                                I   N=           4
           0           0           1           0
Number of primitives per shell             I   N=           4
           3           3           3           3
Shell to atom map                          I   N=           4
           1           1           1           2
Primitive exponents                        R   N=          12
  1.30709320e+02  2.38088610e+01  6.44360830e+00  5.03315130e+00  1.16959610e+00
  3.80389000e-01  5.03315130e+00  1.16959610e+00  3.80389000e-01  3.42525091e+00
  6.23913730e-01  1.68855400e-01
Contraction coefficients                   R   N=          12
  1.54328969e-01  5.35328136e-01  4.44634536e-01 -9.99672287e-02  3.99512825e-01
  7.00115461e-01  1.55916268e-01  6.07683714e-01  3.91957386e-01  1.54328971e-01
  5.35328142e-01  4.44634542e-01
Coordinates of each shell                  R   N=          12
  0.00000000e+00  0.00000000e+00  0.00000000e+00  0.00000000e+00  0.00000000e+00
  0.00000000e+00  0.00000000e+00  0.00000000e+00  0.00000000e+00  0.00000000e+00
  0.00000000e+00  1.51178090e+00
Total Energy                               R     -7.398130089317777e+01
Alpha Orbital Energies                     R   N=           6
 -1.93279009e+01 -6.43068441e-01  8.11969174e-02  2.69549289e-01  2.69549289e-01
  1.44953037e+00
Alpha MO coefficients                      R   N=          36
  9.93936871e-01  2.78022974e-02  0.00000000e+00  0.00000000e+00  5.92053832e-03
 -9.86218793e-03  2.25835006e-01 -7.66302860e-01  0.00000000e+00  0.00000000e+00
 -1.28277831e-01 -3.28739301e-01  1.28780626e-01 -6.97569003e-01  0.00000000e+00
  0.00000000e+00  5.99530398e-01  5.76778032e-01  0.00000000e+00  0.00000000e+00
  9.99997782e-01 -2.10616420e-03  0.00000000e+00  0.00000000e+00  0.00000000e+00
  0.00000000e+00  2.10616420e-03  9.99997782e-01  0.00000000e+00  0.00000000e+00
  1.12281742e-01 -8.70180959e-01  0.00000000e+00  0.00000000e+00 -1.02143348e+00
  1.31175467e+00
Total SCF Density                          R   N=          21
  2.11099281e+00 -4.70515311e-01  2.14919111e+00  0.00000000e+00  0.00000000e+00
  2.00000000e+00  0.00000000e+00  0.00000000e+00  0.00000000e+00  2.00000000e+00
  1.08245834e-01 -6.39499098e-01  0.00000000e+00  0.00000000e+00  7.51853905e-01
 -1.95307957e-02 -3.01405604e-01  0.00000000e+00  0.00000000e+00  7.75815076e-01
  8.81679379e-01
