Generated by Psi4
        SP                           UHF                     DEF2-TZVP
Number of atoms                            I                1
Charge                                     I                0
Multiplicity                               I                3
Number of electrons                        I                8
Number of alpha electrons                  I                5
Number of beta electrons                   I                3
Number of basis functions                  I               31
Number of independent functions            I               31
Atomic numbers                             I   N=           1
           8
Nuclear charges                            R   N=           1
  8.00000000e+00
Current cartesian coordinates              R   N=           3
  0.00000000e+00  0.00000000e+00  0.00000000e+00
Integer atomic weights                     I   N=           1
          16
Real atomic weights                        R   N=           1
  1.59949146e+01
Number of primitive shells                 I               20
Number of contracted shells                I               11
Pure/Cartesian d shells                    I                0
Pure/Cartesian f shells                    I                0
Highest angular momentum                   I                3
Largest degree of contraction              I                6
Shell types                                I   N=          11
           0           0           0           0           0           1
           1           1          -2          -2          -3
Number of primitives per shell             I   N=          11
           6           2           1           1           1           4
           1           1           1           1           1
Shell to atom map                          I   N=          11
           1           1           1           1           1           1
           1           1           1           1           1
Primitive exponents                        R   N=          20
  2.70323826e+04  4.05238714e+03  9.22327227e+02  2.61240710e+02  8.53546414e+01
  3.10350352e+01  1.22608607e+01  4.99870760e+00  1.17031082e+00  4.64747410e-01
  1.85045364e-01  6.32749548e+01  1.46270494e+01  4.45012235e+00  1.52757996e+00
  5.29351179e-01  1.74784213e-01  2.31400000e+00  6.45000000e-01  1.42800000e+00
Contraction coefficients                   R   N=          20
  5.72273352e-04  4.43532335e-03  2.30201077e-02  9.28224907e-02  2.93785000e-01
  6.74016045e-01  6.38399370e-01  3.95345871e-01  1.00000000e+00  1.00000000e+00
  1.00000000e+00  1.20183322e-02  8.30054218e-02  3.19917439e-01  7.07155429e-01
  1.00000000e+00  1.00000000e+00  1.00000000e+00  1.00000000e+00  1.00000000e+00
Coordinates of each shell                  R   N=          33
  0.00000000e+00  0.00000000e+00  0.00000000e+00  0.00000000e+00  0.00000000e+00
  0.00000000e+00  0.00000000e+00  0.00000000e+00  0.00000000e+00  0.00000000e+00
  0.00000000e+00  0.00000000e+00  0.00000000e+00  0.00000000e+00  0.00000000e+00
  0.00000000e+00  0.00000000e+00  0.00000000e+00  0.00000000e+00  0.00000000e+00
  0.00000000e+00  0.00000000e+00  0.00000000e+00  0.00000000e+00  0.00000000e+00
  0.00000000e+00  0.00000000e+00  0.00000000e+00  0.00000000e+00  0.00000000e+00
  0.00000000e+00  0.00000000e+00  0.00000000e+00
Total Energy                               R     -7.481562283551983e+01
Alpha Orbital Energies                     R   N=          31
 -2.07060092e+01 -1.41624947e+00 -7.09256284e-01 -7.09256284e-01 -6.10024457e-01
  4.71856187e-01  5.26336310e-01  5.26336310e-01  5.61816774e-01  1.61028415e+00
  1.61028415e+00  1.65942065e+00  1.65942065e+00  1.67668404e+00  2.79268202e+00
  2.79268202e+00  2.86024460e+00  2.86389728e+00  5.41330146e+00  5.41330146e+00
  5.46120083e+00  5.46120083e+00  5.49041041e+00  5.49041041e+00  5.50023526e+00
  6.51704759e+00  6.51704759e+00  6.58554000e+00  6.58554000e+00  6.60941179e+00
  4.41849569e+01
Alpha MO coefficients                      R   N=         961
  4.34909856e-01  6.42129844e-01  2.35908189e-02 -7.43461193e-03  2.58235980e-03
  0.00000000e+00  0.00000000e+00  0.00000000e+00  0.00000000e+00  0.00000000e+00
  0.00000000e+00  0.00000000e+00  0.00000000e+00  0.00000000e+00  2.54864446e-04
  2.85038266e-04  1.69057708e-05 -5.16211933e-04 -6.14497716e-05 -6.30694893e-05
 -7.05363895e-05 -4.18355069e-06  1.27743290e-04  1.52065373e-05  0.00000000e+00
  0.00000000e+00  0.00000000e+00  0.00000000e+00  0.00000000e+00  0.00000000e+00
  0.00000000e+00  1.09826274e-01  2.67930729e-01 -4.06692006e-01 -5.54266879e-01
 -1.72942180e-01  0.00000000e+00  0.00000000e+00  0.00000000e+00  0.00000000e+00
  0.00000000e+00  0.00000000e+00  0.00000000e+00  0.00000000e+00  0.00000000e+00
 -3.24390524e-03 -3.62795650e-03 -2.15176025e-04  6.57032638e-03  7.82130419e-04
 -6.51693164e-03 -7.28848185e-03 -4.32283726e-04  1.31996358e-02  1.57128217e-03
  0.00000000e+00  0.00000000e+00  0.00000000e+00  0.00000000e+00  0.00000000e+00
  0.00000000e+00  0.00000000e+00  0.00000000e+00  0.00000000e+00  0.00000000e+00
  0.00000000e+00  0.00000000e+00 -2.85082312e-02  5.18321997e-01  8.11922029e-03
 -2.52652323e-02  4.59359459e-01  7.19560555e-03 -1.14957255e-02  2.09009369e-01
  3.27401330e-03  0.00000000e+00  0.00000000e+00  0.00000000e+00  0.00000000e+00
  0.00000000e+00  0.00000000e+00  0.00000000e+00  0.00000000e+00  0.00000000e+00
  0.00000000e+00  4.77715398e-05  8.08833026e-06  1.24956863e-03 -4.41078249e-04
  3.07085167e-03  1.19336533e-03 -6.81191921e-03  0.00000000e+00  0.00000000e+00
  0.00000000e+00  0.00000000e+00  0.00000000e+00  1.37729282e-01 -2.65842834e-04
  5.00566587e-01  1.22061669e-01 -2.35601462e-04  4.43623844e-01  5.55382762e-02
 -1.07199084e-04  2.01849636e-01  0.00000000e+00  0.00000000e+00  0.00000000e+00
  0.00000000e+00  0.00000000e+00  0.00000000e+00  0.00000000e+00  0.00000000e+00
  0.00000000e+00  0.00000000e+00  2.94521343e-03  5.05128722e-03  2.79334228e-04
 -4.58524339e-03 -5.96487560e-04 -1.82242102e-03 -2.13374022e-04  0.00000000e+00
  0.00000000e+00  0.00000000e+00  0.00000000e+00  0.00000000e+00 -4.87281109e-01
 -2.89009011e-02  1.34058476e-01 -4.27510997e-01 -2.53559041e-02  1.17614806e-01
 -2.38784732e-01 -1.41624492e-02  6.56933273e-02  0.00000000e+00  0.00000000e+00
  0.00000000e+00  0.00000000e+00  0.00000000e+00  0.00000000e+00  0.00000000e+00
  0.00000000e+00  0.00000000e+00  0.00000000e+00  3.32029409e-03 -3.62274997e-03
 -2.14867223e-04 -4.48178279e-03 -5.33510582e-04  6.60363931e-03  1.18613583e-03
  5.19648373e-02  1.08194977e-01  1.17895166e-01 -1.86843685e+00  2.03766293e+00
  0.00000000e+00  0.00000000e+00  0.00000000e+00  0.00000000e+00  0.00000000e+00
  0.00000000e+00  0.00000000e+00  0.00000000e+00  0.00000000e+00 -2.31370124e-03
 -2.58762412e-03 -1.53473360e-04  4.68625657e-03  5.57851103e-04  7.75601124e-04
  8.67425812e-04  5.14474853e-05 -1.57093138e-03 -1.87003376e-04  0.00000000e+00
  0.00000000e+00  0.00000000e+00  0.00000000e+00  0.00000000e+00  0.00000000e+00
  0.00000000e+00  0.00000000e+00  0.00000000e+00  0.00000000e+00  0.00000000e+00
  0.00000000e+00  1.53751465e-02 -2.47776596e-01  2.46945607e-03  4.14092914e-02
 -6.67327187e-01  6.65089117e-03 -7.87427559e-02  1.26897081e+00 -1.26471495e-02
  0.00000000e+00  0.00000000e+00  0.00000000e+00  0.00000000e+00  0.00000000e+00
  0.00000000e+00  0.00000000e+00  0.00000000e+00  0.00000000e+00  0.00000000e+00
  1.06622476e-05  4.41903356e-05 -4.35735643e-04  1.12037105e-04 -1.08277755e-03
 -4.35587487e-04  2.38756701e-03  0.00000000e+00  0.00000000e+00  0.00000000e+00
  0.00000000e+00  0.00000000e+00  6.54769808e-02  6.44886515e-03  2.39388621e-01
  1.76346637e-01  1.73684808e-02  6.44736177e-01 -3.35335856e-01 -3.30274196e-02
 -1.22601237e+00  0.00000000e+00  0.00000000e+00  0.00000000e+00  0.00000000e+00
  0.00000000e+00  0.00000000e+00  0.00000000e+00  0.00000000e+00  0.00000000e+00
  0.00000000e+00  1.03359634e-03  1.77201663e-03  1.09621193e-04 -1.61256424e-03
 -1.80652181e-04 -6.28176906e-04 -1.38268666e-04  0.00000000e+00  0.00000000e+00
  0.00000000e+00  0.00000000e+00  0.00000000e+00 -2.45927503e-01 -1.45860907e-02
  6.76584126e-02 -6.70026554e-01 -3.97396305e-02  1.84334540e-01  1.22208813e+00
  7.24826953e-02 -3.36215111e-01  0.00000000e+00  0.00000000e+00  0.00000000e+00
  0.00000000e+00  0.00000000e+00  0.00000000e+00  0.00000000e+00  0.00000000e+00
  0.00000000e+00  0.00000000e+00  1.29751693e-03 -1.41571177e-03 -8.39666164e-05
 -1.75140783e-03 -2.08487259e-04  2.58059484e-03  4.63522591e-04  0.00000000e+00
  0.00000000e+00  0.00000000e+00  0.00000000e+00  0.00000000e+00  0.00000000e+00
  0.00000000e+00  0.00000000e+00  0.00000000e+00  0.00000000e+00  0.00000000e+00
  0.00000000e+00  0.00000000e+00  0.00000000e+00 -2.62017238e-05 -3.36425779e-04
  5.53193713e-03 -1.97202429e-04  1.50932700e-03  4.57219539e-03  5.87062290e-02
 -9.65321886e-01  3.44117830e-02 -2.63377250e-01  0.00000000e+00  0.00000000e+00
  0.00000000e+00  0.00000000e+00  0.00000000e+00  0.00000000e+00  0.00000000e+00
  0.00000000e+00  0.00000000e+00  0.00000000e+00  0.00000000e+00  0.00000000e+00
  0.00000000e+00  0.00000000e+00  0.00000000e+00  0.00000000e+00  0.00000000e+00
  0.00000000e+00  0.00000000e+00  0.00000000e+00  0.00000000e+00  4.62827691e-03
  1.46327977e-03  1.18218411e-04  3.05264027e-03  3.72063263e-04 -8.07633364e-01
 -2.55342017e-01 -2.06290882e-02 -5.32685095e-01 -6.49249626e-02  0.00000000e+00
  0.00000000e+00  0.00000000e+00  0.00000000e+00  0.00000000e+00  0.00000000e+00
  0.00000000e+00  0.00000000e+00  0.00000000e+00  0.00000000e+00  0.00000000e+00
  0.00000000e+00  0.00000000e+00  0.00000000e+00  0.00000000e+00  0.00000000e+00
  0.00000000e+00  0.00000000e+00  0.00000000e+00  0.00000000e+00  0.00000000e+00
  6.18136194e-05 -2.60799321e-04  2.36788935e-03  9.88588694e-04 -8.60660608e-03
 -6.91108903e-03  2.91587412e-02 -2.64742532e-01 -1.10529436e-01  9.62264003e-01
  0.00000000e+00  0.00000000e+00  0.00000000e+00  0.00000000e+00  0.00000000e+00
  0.00000000e+00  0.00000000e+00  0.00000000e+00  0.00000000e+00  0.00000000e+00
  0.00000000e+00  0.00000000e+00  0.00000000e+00  0.00000000e+00  0.00000000e+00
  0.00000000e+00  0.00000000e+00  0.00000000e+00  0.00000000e+00  0.00000000e+00
  0.00000000e+00  3.97372320e-03 -7.70800307e-03 -4.94240291e-04 -2.29407507e-03
 -1.37374804e-04 -4.44283235e-01  8.61795441e-01  5.52586741e-02  2.56489706e-01
  1.53592284e-02  0.00000000e+00  0.00000000e+00  0.00000000e+00  0.00000000e+00
  0.00000000e+00  0.00000000e+00  0.00000000e+00  4.37012704e-03  1.26188796e-02
 -5.37616114e-02  4.59287337e-02 -2.55802324e-02  0.00000000e+00  0.00000000e+00
  0.00000000e+00  0.00000000e+00  0.00000000e+00  0.00000000e+00  0.00000000e+00
  0.00000000e+00  0.00000000e+00 -4.13428423e-03 -4.62374892e-03 -2.74237002e-04
  8.37373311e-03  9.96807618e-04  3.96764966e-01  4.43738620e-01  2.63183730e-02
 -8.03622524e-01 -9.56630744e-02  0.00000000e+00  0.00000000e+00  0.00000000e+00
  0.00000000e+00  0.00000000e+00  0.00000000e+00  0.00000000e+00  0.00000000e+00
  0.00000000e+00  0.00000000e+00  0.00000000e+00  0.00000000e+00  3.18374994e-01
  1.36800235e-02  1.16019135e+00 -4.25337281e-01 -1.82760082e-02 -1.54997297e+00
  1.87446935e-01  8.05427098e-03  6.83075986e-01  0.00000000e+00  0.00000000e+00
  0.00000000e+00  0.00000000e+00  0.00000000e+00  0.00000000e+00  0.00000000e+00
  0.00000000e+00  0.00000000e+00  0.00000000e+00 -1.44929966e-03 -2.48523765e-03
 -1.44747356e-04  2.25848358e-03  2.75484330e-04  8.89627442e-04  1.44867828e-04
  0.00000000e+00  0.00000000e+00  0.00000000e+00  0.00000000e+00  0.00000000e+00
 -6.98611493e-02  1.20111952e+00  5.00839773e-03  9.33319256e-02 -1.60465149e+00
 -6.69103514e-03 -4.11315541e-02  7.07172912e-01  2.94875169e-03  0.00000000e+00
  0.00000000e+00  0.00000000e+00  0.00000000e+00  0.00000000e+00  0.00000000e+00
  0.00000000e+00  0.00000000e+00  0.00000000e+00  0.00000000e+00 -6.25644133e-06
  2.56002271e-05 -6.13141383e-04  1.90156211e-04 -1.51432581e-03 -5.97797412e-04
  3.35015674e-03  1.27398589e-01  4.53153609e-01 -2.86743374e+00  3.73193426e+00
 -1.51363306e+00  0.00000000e+00  0.00000000e+00  0.00000000e+00  0.00000000e+00
  0.00000000e+00  0.00000000e+00  0.00000000e+00  0.00000000e+00  0.00000000e+00
 -5.26319728e-03 -5.88631583e-03 -3.49120515e-04  1.06602756e-02  1.26899721e-03
 -3.61820422e-03 -4.04656934e-03 -2.40004175e-04  7.32844544e-03  8.72376770e-04
  0.00000000e+00  0.00000000e+00  0.00000000e+00  0.00000000e+00  0.00000000e+00
  0.00000000e+00  0.00000000e+00  0.00000000e+00  0.00000000e+00 -1.31764377e-12
  1.71455261e-12  0.00000000e+00 -1.16202138e+00 -6.89201046e-02  3.19689831e-01
  1.54035957e+00  9.13595434e-02 -4.23776446e-01 -6.73086901e-01 -3.99211413e-02
  1.85176488e-01  0.00000000e+00  0.00000000e+00  0.00000000e+00  0.00000000e+00
  0.00000000e+00  0.00000000e+00  0.00000000e+00  0.00000000e+00  0.00000000e+00
  0.00000000e+00 -1.62623171e-03  1.77437019e-03  1.05238838e-04  2.19511196e-03
  2.61305716e-04 -3.23436640e-03 -5.80952061e-04  0.00000000e+00  0.00000000e+00
  0.00000000e+00  0.00000000e+00  0.00000000e+00  0.00000000e+00  0.00000000e+00
  0.00000000e+00  0.00000000e+00  0.00000000e+00  0.00000000e+00  0.00000000e+00
  0.00000000e+00  0.00000000e+00  0.00000000e+00  0.00000000e+00  0.00000000e+00
  0.00000000e+00  0.00000000e+00  0.00000000e+00  0.00000000e+00  0.00000000e+00
  0.00000000e+00  0.00000000e+00  3.35860241e-01  6.58269068e-02  7.98169649e-01
  2.64743188e-01  3.08892191e-01  4.76768121e-02  2.79308985e-01  0.00000000e+00
  0.00000000e+00  0.00000000e+00  0.00000000e+00  0.00000000e+00  0.00000000e+00
  0.00000000e+00  0.00000000e+00  0.00000000e+00  0.00000000e+00  0.00000000e+00
  0.00000000e+00  0.00000000e+00  0.00000000e+00  0.00000000e+00  0.00000000e+00
  0.00000000e+00  0.00000000e+00  0.00000000e+00  0.00000000e+00  0.00000000e+00
  0.00000000e+00  0.00000000e+00  0.00000000e+00  6.24263322e-01  2.34861625e-01
 -4.13393393e-01  5.70109150e-01 -8.13661748e-02  2.01528155e-01 -1.09465662e-01
  0.00000000e+00  0.00000000e+00  0.00000000e+00  0.00000000e+00  0.00000000e+00
  0.00000000e+00  0.00000000e+00  0.00000000e+00  0.00000000e+00  0.00000000e+00
  0.00000000e+00  0.00000000e+00  0.00000000e+00  0.00000000e+00  0.00000000e+00
  0.00000000e+00  0.00000000e+00  0.00000000e+00  0.00000000e+00  0.00000000e+00
  0.00000000e+00  0.00000000e+00  0.00000000e+00  0.00000000e+00  3.51257715e-01
 -4.58779405e-01  2.46359636e-01 -7.74078180e-03 -5.86496319e-01 -4.20740421e-01
 -2.90492773e-01  0.00000000e+00  0.00000000e+00  0.00000000e+00  0.00000000e+00
  0.00000000e+00  0.00000000e+00  0.00000000e+00  0.00000000e+00  0.00000000e+00
  0.00000000e+00  0.00000000e+00  0.00000000e+00  0.00000000e+00  0.00000000e+00
  0.00000000e+00  0.00000000e+00  0.00000000e+00  0.00000000e+00  0.00000000e+00
  0.00000000e+00  0.00000000e+00  0.00000000e+00  0.00000000e+00  0.00000000e+00
  3.22523995e-01 -3.88794901e-01 -3.21002126e-01 -1.45073968e-01  6.20474247e-01
 -4.61389544e-01  1.51193168e-01  0.00000000e+00  0.00000000e+00  0.00000000e+00
  0.00000000e+00  0.00000000e+00 -1.25240097e-07  1.07501098e-04  2.27203200e-05
 -1.30090672e-05  1.11664636e-02  2.36002823e-03  5.12585248e-06 -4.39982703e-03
 -9.29901923e-04  0.00000000e+00  0.00000000e+00  0.00000000e+00  0.00000000e+00
  0.00000000e+00  0.00000000e+00  0.00000000e+00  0.00000000e+00  0.00000000e+00
  0.00000000e+00 -8.22200113e-02 -1.31593541e-01 -1.66634091e-01  1.74786424e-01
 -3.76347255e-01 -1.05139433e-01  8.74547694e-01  0.00000000e+00  0.00000000e+00
  0.00000000e+00  0.00000000e+00  0.00000000e+00  2.97663703e-05 -2.18375105e-05
  1.03488169e-04  3.09192276e-03 -2.26832815e-03  1.07496285e-02 -1.21828412e-03
  8.93770117e-04 -4.23558503e-03  0.00000000e+00  0.00000000e+00  0.00000000e+00
  0.00000000e+00  0.00000000e+00  0.00000000e+00  0.00000000e+00  0.00000000e+00
  0.00000000e+00  0.00000000e+00 -3.74501697e-01 -6.44210373e-01 -3.33828517e-03
  5.73563115e-01  1.55470015e-01  2.63341052e-01 -1.48847838e-01  0.00000000e+00
  0.00000000e+00  0.00000000e+00  0.00000000e+00  0.00000000e+00 -1.34827805e-04
 -7.99670868e-06  3.70931888e-05 -1.36659330e-02 -8.10533738e-04  3.75970691e-03
  5.38060551e-03  3.19126568e-04 -1.48028677e-03  0.00000000e+00  0.00000000e+00
  0.00000000e+00  0.00000000e+00  0.00000000e+00  0.00000000e+00  0.00000000e+00
  0.00000000e+00  0.00000000e+00  0.00000000e+00 -3.50785753e-01  3.82739915e-01
  2.27005075e-02  4.73495875e-01  5.63648601e-02 -6.97667896e-01 -1.25314065e-01
  0.00000000e+00  0.00000000e+00  0.00000000e+00  0.00000000e+00  0.00000000e+00
  0.00000000e+00  0.00000000e+00  0.00000000e+00  0.00000000e+00  0.00000000e+00
  0.00000000e+00  0.00000000e+00  0.00000000e+00  0.00000000e+00  7.65360884e-02
 -4.19972820e-02  1.11802982e+00  1.41855411e-02  3.11049254e-01 -3.88340476e-02
  2.13092214e-02 -5.67283017e-01 -7.19767618e-03 -1.57824914e-01  0.00000000e+00
  0.00000000e+00  0.00000000e+00  0.00000000e+00  0.00000000e+00  0.00000000e+00
  0.00000000e+00  0.00000000e+00  0.00000000e+00  0.00000000e+00  0.00000000e+00
  0.00000000e+00  0.00000000e+00  0.00000000e+00  0.00000000e+00  0.00000000e+00
  0.00000000e+00  0.00000000e+00  0.00000000e+00  0.00000000e+00  0.00000000e+00
  9.34110616e-01  3.01130272e-01 -7.39493492e-02  6.19285569e-01  4.83722641e-02
 -4.73963289e-01 -1.52792069e-01  3.75215485e-02 -3.14222556e-01 -2.45438570e-02
  0.00000000e+00  0.00000000e+00  0.00000000e+00  0.00000000e+00  0.00000000e+00
  0.00000000e+00  0.00000000e+00  0.00000000e+00  0.00000000e+00  0.00000000e+00
  0.00000000e+00  0.00000000e+00  0.00000000e+00  0.00000000e+00  0.00000000e+00
  0.00000000e+00  0.00000000e+00  0.00000000e+00  0.00000000e+00  0.00000000e+00
  0.00000000e+00  6.70683639e-02 -1.48225228e-01  2.97334404e-01  9.30786404e-02
 -1.10949408e+00 -3.38698644e-02  7.48544927e-02 -1.50155384e-01 -4.70051861e-02
  5.60300146e-01  0.00000000e+00  0.00000000e+00  0.00000000e+00  0.00000000e+00
  0.00000000e+00  0.00000000e+00  0.00000000e+00  0.00000000e+00  0.00000000e+00
  0.00000000e+00  0.00000000e+00  0.00000000e+00  0.00000000e+00  0.00000000e+00
  0.00000000e+00  0.00000000e+00  0.00000000e+00  0.00000000e+00  0.00000000e+00
  0.00000000e+00  0.00000000e+00  5.10397151e-01 -9.87943439e-01 -9.88216758e-02
 -3.09895486e-01  1.10358325e-01 -2.57753153e-01  4.98916453e-01  4.99054481e-02
  1.56498794e-01 -5.57315145e-02  0.00000000e+00  0.00000000e+00  0.00000000e+00
  0.00000000e+00  0.00000000e+00  0.00000000e+00  0.00000000e+00  2.76887740e-03
  6.81597324e-03 -3.51740330e-02  2.94727362e-02 -8.39876990e-03  0.00000000e+00
  0.00000000e+00  0.00000000e+00  0.00000000e+00  0.00000000e+00  0.00000000e+00
  0.00000000e+00  0.00000000e+00  0.00000000e+00  4.59430415e-01  5.13823134e-01
  3.04751228e-02 -9.30547456e-01 -1.10772195e-01 -2.31642953e-01 -2.59067541e-01
 -1.53654334e-02  4.69178255e-01  5.58508914e-02  0.00000000e+00  0.00000000e+00
  0.00000000e+00  0.00000000e+00  0.00000000e+00  0.00000000e+00  0.00000000e+00
  1.38626782e+00 -1.66431514e+00  1.31476044e+00 -1.09456541e+00  3.86734880e-01
  0.00000000e+00  0.00000000e+00  0.00000000e+00  0.00000000e+00  0.00000000e+00
  0.00000000e+00  0.00000000e+00  0.00000000e+00  0.00000000e+00 -1.57156621e-04
 -1.75762651e-04 -1.04245761e-05  3.18310867e-04  3.78916659e-05  5.14241319e-05
  5.75123192e-05  3.41108617e-06 -1.04156350e-04 -1.23987524e-05  0.00000000e+00
  0.00000000e+00  0.00000000e+00  0.00000000e+00  0.00000000e+00  0.00000000e+00
  0.00000000e+00
Total SCF Density                          R   N=         496
  4.02426325e-01  6.15585952e-01  9.61532021e-01 -6.50146006e-02 -1.75504420e-01
  3.01615736e-01 -1.19885088e-01 -2.86786661e-01  4.15001171e-01  5.73566670e-01
 -4.33804379e-02 -1.07394614e-01  1.63384600e-01  2.26211567e-01  9.37613832e-02
  0.00000000e+00  0.00000000e+00  0.00000000e+00  0.00000000e+00  0.00000000e+00
  4.70777729e-01  0.00000000e+00  0.00000000e+00  0.00000000e+00  0.00000000e+00
  0.00000000e+00  1.19357340e-02  2.70244248e-01  0.00000000e+00  0.00000000e+00
  0.00000000e+00  0.00000000e+00  0.00000000e+00 -5.53645819e-02 -3.28370273e-03
  2.84767976e-01  0.00000000e+00  0.00000000e+00  0.00000000e+00  0.00000000e+00
  0.00000000e+00  4.15176893e-01  1.04565706e-02 -4.85033982e-02  3.66152696e-01
  0.00000000e+00  0.00000000e+00  0.00000000e+00  0.00000000e+00  0.00000000e+00
  1.04565706e-02  2.39494987e-01 -2.87676228e-03  9.16059894e-03  2.12244541e-01
  0.00000000e+00  0.00000000e+00  0.00000000e+00  0.00000000e+00  0.00000000e+00
 -4.85033982e-02 -2.87676228e-03  2.52218828e-01 -4.24919600e-02 -2.52022070e-03
  2.23391409e-01  0.00000000e+00  0.00000000e+00  0.00000000e+00  0.00000000e+00
  0.00000000e+00  2.59506446e-01  8.94509486e-03 -4.14923320e-02  2.28992523e-01
  7.86861489e-03 -3.64990184e-02  1.45797073e-01  0.00000000e+00  0.00000000e+00
  0.00000000e+00  0.00000000e+00  0.00000000e+00  8.94509486e-03  1.09218997e-01
 -2.46093223e-03  7.86861489e-03  9.67911232e-02 -2.16477615e-03  6.04785246e-03
  4.41864886e-02  0.00000000e+00  0.00000000e+00  0.00000000e+00  0.00000000e+00
  0.00000000e+00 -4.14923320e-02 -2.46093223e-03  1.20103633e-01 -3.64990184e-02
 -2.16477615e-03  1.06365869e-01 -2.80533081e-02 -1.66385659e-03  5.15456809e-02
 -5.18768427e-05 -7.52320237e-05  4.18308618e-05  7.22497994e-06 -3.15844840e-04
  0.00000000e+00  0.00000000e+00  0.00000000e+00  0.00000000e+00  0.00000000e+00
  0.00000000e+00  0.00000000e+00  0.00000000e+00  0.00000000e+00  2.27777500e-05
 -5.80186271e-05 -8.41388663e-05  4.67832861e-05  8.08035715e-06 -3.53238229e-04
  0.00000000e+00  0.00000000e+00  0.00000000e+00  0.00000000e+00  0.00000000e+00
  0.00000000e+00  0.00000000e+00  0.00000000e+00  0.00000000e+00  2.54744452e-05
  2.84904065e-05 -3.44111556e-06 -4.99032081e-06  2.77474153e-06  4.79250271e-07
 -2.09507468e-05  0.00000000e+00  0.00000000e+00  0.00000000e+00  0.00000000e+00
  0.00000000e+00  0.00000000e+00  0.00000000e+00  0.00000000e+00  0.00000000e+00
  1.51090286e-06  1.68978113e-06  1.00221816e-07  1.05073287e-04  1.52377740e-04
 -8.47257839e-05 -1.46337432e-05  6.39723891e-04  0.00000000e+00  0.00000000e+00
  0.00000000e+00  0.00000000e+00  0.00000000e+00  0.00000000e+00  0.00000000e+00
  0.00000000e+00  0.00000000e+00 -4.61349024e-05 -5.15968891e-05 -3.06023888e-06
  9.34433480e-05  1.25079044e-05  1.81390176e-05 -1.00857414e-05 -1.74199804e-06
  7.61526120e-05  0.00000000e+00  0.00000000e+00  0.00000000e+00  0.00000000e+00
  0.00000000e+00  0.00000000e+00  0.00000000e+00  0.00000000e+00  0.00000000e+00
 -5.49189013e-06 -6.14208400e-06 -3.64290262e-07  1.11234786e-05  1.32413681e-06
  2.26014010e-04  6.06338999e-04 -9.22156516e-04 -1.39345894e-03 -1.32471807e-03
  0.00000000e+00  0.00000000e+00  0.00000000e+00  0.00000000e+00  0.00000000e+00
  0.00000000e+00  0.00000000e+00  0.00000000e+00  0.00000000e+00  5.48282596e-05
  6.13194671e-05  3.63689013e-06 -1.11051197e-04 -1.32195136e-05  1.36614061e-04
  2.52772179e-04  6.78124467e-04 -1.03133214e-03 -1.55843283e-03 -1.48155361e-03
  0.00000000e+00  0.00000000e+00  0.00000000e+00  0.00000000e+00  0.00000000e+00
  0.00000000e+00  0.00000000e+00  0.00000000e+00  0.00000000e+00  6.13194671e-05
  6.85791793e-05  4.06746752e-06 -1.24198730e-04 -1.47845935e-05  1.52788023e-04
  1.70876848e-04  1.49920521e-05  4.02199220e-05 -6.11688563e-05 -9.24314780e-05
 -8.78717307e-05  0.00000000e+00  0.00000000e+00  0.00000000e+00  0.00000000e+00
  0.00000000e+00  0.00000000e+00  0.00000000e+00  0.00000000e+00  0.00000000e+00
  3.63689013e-06  4.06746752e-06  2.41243657e-07 -7.36629259e-06 -8.76882088e-07
  9.06193873e-06  1.01347965e-05  6.01100159e-07 -4.57777186e-04 -1.22810157e-03
  1.86777012e-03  2.82236358e-03  2.68313326e-03  0.00000000e+00  0.00000000e+00
  0.00000000e+00  0.00000000e+00  0.00000000e+00  0.00000000e+00  0.00000000e+00
  0.00000000e+00  0.00000000e+00 -1.11051197e-04 -1.24198730e-04 -7.36629259e-06
  2.24927226e-04  2.67752948e-05 -2.76703201e-04 -3.09462547e-04 -1.83543879e-05
  5.60444959e-04 -5.44937103e-05 -1.46192980e-04  2.22339004e-04  3.35973631e-04
  3.19399680e-04  0.00000000e+00  0.00000000e+00  0.00000000e+00  0.00000000e+00
  0.00000000e+00  0.00000000e+00  0.00000000e+00  0.00000000e+00  0.00000000e+00
 -1.32195136e-05 -1.47845935e-05 -8.76882088e-07  2.67752948e-05  3.18732607e-06
 -3.29386972e-05 -3.68383635e-05 -2.18490289e-06  6.67152628e-05  7.94177236e-06
  0.00000000e+00  0.00000000e+00  0.00000000e+00  0.00000000e+00  0.00000000e+00
 -1.00242865e-03 -5.94545754e-05  1.86167041e-03 -8.73923464e-04 -5.18328644e-05
  1.64591159e-03 -4.96122831e-04 -2.94253084e-05  7.75987725e-04  0.00000000e+00
  0.00000000e+00  0.00000000e+00  0.00000000e+00  0.00000000e+00  0.00000000e+00
  0.00000000e+00  0.00000000e+00  0.00000000e+00  0.00000000e+00  1.99098054e-05
  0.00000000e+00  0.00000000e+00  0.00000000e+00  0.00000000e+00  0.00000000e+00
  2.23032995e-03  9.38823013e-05  2.10631049e-03  1.96082458e-03  8.22660191e-05
  1.87104806e-03  9.99636173e-04  4.38045466e-05  8.21766988e-04  0.00000000e+00
  0.00000000e+00  0.00000000e+00  0.00000000e+00  0.00000000e+00  0.00000000e+00
  0.00000000e+00  0.00000000e+00  0.00000000e+00  0.00000000e+00  2.62099340e-06
  3.88885636e-05  0.00000000e+00  0.00000000e+00  0.00000000e+00  0.00000000e+00
  0.00000000e+00  9.38823013e-05  6.53003854e-04  1.24926393e-04  8.22660191e-05
  5.78664821e-04  1.10972854e-04  4.38045466e-05  2.63671528e-04  4.87394361e-05
  0.00000000e+00  0.00000000e+00  0.00000000e+00  0.00000000e+00  0.00000000e+00
  0.00000000e+00  0.00000000e+00  0.00000000e+00  0.00000000e+00  0.00000000e+00
  1.55452509e-07  2.21426380e-06  1.68649209e-06  0.00000000e+00  0.00000000e+00
  0.00000000e+00  0.00000000e+00  0.00000000e+00  1.27984887e-03 -1.14782960e-04
 -2.82118884e-03  1.11472267e-03 -1.02884272e-04 -2.49488568e-03  6.40138813e-04
 -3.89279019e-05 -1.17175069e-03  0.00000000e+00  0.00000000e+00  0.00000000e+00
  0.00000000e+00  0.00000000e+00  0.00000000e+00  0.00000000e+00  0.00000000e+00
  0.00000000e+00  0.00000000e+00 -2.86883889e-05 -6.62092513e-06 -8.50738137e-07
  4.16859786e-05  0.00000000e+00  0.00000000e+00  0.00000000e+00  0.00000000e+00
  0.00000000e+00  5.63340608e-05  1.60525464e-03 -3.35833791e-04  4.76002512e-05
  1.42250844e-03 -2.96990723e-04  3.74831159e-05  6.48182449e-04 -1.39484982e-04
  0.00000000e+00  0.00000000e+00  0.00000000e+00  0.00000000e+00  0.00000000e+00
  0.00000000e+00  0.00000000e+00  0.00000000e+00  0.00000000e+00  0.00000000e+00
 -3.41506043e-06 -1.01879444e-06  3.78742654e-06  3.81693923e-06  1.00759541e-05
  0.00000000e+00  0.00000000e+00  0.00000000e+00  0.00000000e+00  0.00000000e+00
 -3.08278515e-03  4.53095128e-04 -1.32846350e-04 -2.70331444e-03  4.03259747e-04
 -1.25653016e-04 -1.42588910e-03  1.71866377e-04 -3.28380083e-06  0.00000000e+00
  0.00000000e+00  0.00000000e+00  0.00000000e+00  0.00000000e+00  0.00000000e+00
  0.00000000e+00  0.00000000e+00  0.00000000e+00  0.00000000e+00  1.70310667e-05
 -3.35725507e-05 -4.63663613e-07 -2.23269841e-05  1.16183235e-06  4.91796724e-05
  0.00000000e+00  0.00000000e+00  0.00000000e+00  0.00000000e+00  0.00000000e+00
 -3.37722215e-04 -3.56051618e-03 -2.38616630e-05 -2.94134021e-04 -3.15517739e-03
 -2.25696071e-05 -1.69014498e-04 -1.43769803e-03 -5.89831400e-07  0.00000000e+00
  0.00000000e+00  0.00000000e+00  0.00000000e+00  0.00000000e+00  0.00000000e+00
  0.00000000e+00  0.00000000e+00  0.00000000e+00  0.00000000e+00  3.05909476e-06
 -5.51140458e-06 -8.83125407e-06 -1.43376902e-06 -2.14359251e-05  2.40977663e-07
  4.78813482e-05
Beta Orbital Energies                      R   N=          31
 -2.06267104e+01 -1.07450558e+00 -5.20889510e-01  9.99325622e-02  9.99325622e-02
  5.15969071e-01  5.84677478e-01  6.75251322e-01  6.75251322e-01  1.73884299e+00
  1.74644618e+00  1.74644618e+00  1.77358803e+00  1.77358803e+00  2.91061958e+00
  2.95870029e+00  2.97680188e+00  2.97680188e+00  5.53140431e+00  5.53140431e+00
  5.54307348e+00  5.54307348e+00  5.54993765e+00  5.54993765e+00  5.55220235e+00
  6.69909956e+00  6.70307515e+00  6.70307515e+00  6.71577458e+00  6.71577458e+00
  4.42280463e+01
Beta MO coefficients                       R   N=         961
  4.36437759e-01  6.43298885e-01  1.72300797e-02 -5.27425513e-03  1.54780644e-03
  0.00000000e+00  0.00000000e+00  0.00000000e+00  0.00000000e+00  0.00000000e+00
  0.00000000e+00  0.00000000e+00  0.00000000e+00  0.00000000e+00 -3.80638529e-04
 -4.25702949e-04 -2.52486678e-05  7.70959440e-04  9.17748671e-05 -8.31842469e-05
 -9.30325662e-05 -5.51781087e-06  1.68484469e-04  2.00563595e-05  0.00000000e+00
  0.00000000e+00  0.00000000e+00  0.00000000e+00  0.00000000e+00  0.00000000e+00
  0.00000000e+00  1.03634041e-01  2.52152639e-01 -3.67918396e-01 -5.16015315e-01
 -2.52672359e-01  0.00000000e+00  0.00000000e+00  0.00000000e+00  0.00000000e+00
  0.00000000e+00  0.00000000e+00  0.00000000e+00  0.00000000e+00  0.00000000e+00
  3.47058889e-03  3.88147760e-03  2.30212496e-04 -7.02945987e-03 -8.36785584e-04
  9.70220414e-03  1.08508640e-02  6.43570502e-04 -1.96512053e-02 -2.33927579e-03
  0.00000000e+00  0.00000000e+00  0.00000000e+00  0.00000000e+00  0.00000000e+00
  0.00000000e+00  0.00000000e+00  0.00000000e+00  0.00000000e+00  0.00000000e+00
  0.00000000e+00  0.00000000e+00 -4.62117708e-01 -2.74084465e-02  1.27135640e-01
 -4.09694594e-01 -2.42992038e-02  1.12713241e-01 -2.92510295e-01 -1.73489408e-02
  8.04740504e-02  0.00000000e+00  0.00000000e+00  0.00000000e+00  0.00000000e+00
  0.00000000e+00  0.00000000e+00  0.00000000e+00  0.00000000e+00  0.00000000e+00
  0.00000000e+00 -4.57043042e-04  4.98676510e-04  2.95767684e-05  6.16923557e-04
  7.34384645e-05 -9.09000022e-04 -1.63273226e-04  0.00000000e+00  0.00000000e+00
  0.00000000e+00  0.00000000e+00  0.00000000e+00 -1.88613045e-02  3.50305837e-01