Generated by Psi4
        SP                           RHF                        STO-3G
Number of atoms                            I                3
Charge                                     I                0
Multiplicity                               I                1
Number of electrons                        I               10
Number of alpha electrons                  I                5
Number of beta electrons                   I                5
Number of basis functions                  I                7
Number of independent functions            I                7
Atomic numbers                             I   N=           3
           8           1           1
Nuclear charges                            R   N=           3
  8.00000000e+00  1.00000000e+00  1.00000000e+00
Current cartesian coordinates              R   N=           9
  0.00000000e+00 -2.09404105e-01  0.00000000e+00  1.48149972e+00  8.37616400e-01
  0.00000000e+00 -1.48149972e+00  8.37616400e-01  0.00000000e+00
Integer atomic weights                     I   N=           3
          16           1           1
Real atomic weights                        R   N=           3
  1.59949146e+01  1.00782503e+00  1.00782503e+00
Number of primitive shells                 I               15
Number of contracted shells                I                5
Pure/Cartesian d shells                    I                0
Pure/Cartesian f shells                    I                0
Highest angular momentum                   I                1
Largest degree of contraction              I                3
Shell types                                I   N=           5
           0           0           1           0           0
Number of primitives per shell             I   N=           5
           3           3           3           3           3
Shell to atom map                          I   N=           5
           1           1           1           2           3
Primitive exponents                        R   N=          15
  1.30709320e+02  2.38088610e+01  6.44360830e+00  5.03315130e+00  1.16959610e+00
  3.80389000e-01  5.03315130e+00  1.16959610e+00  3.80389000e-01  3.42525091e+00
  6.23913730e-01  1.68855400e-01  3.42525091e+00  6.23913730e-01  1.68855400e-01
Contraction coefficients                   R   N=          15
  1.54328969e-01  5.35328136e-01  4.44634536e-01 -9.99672287e-02  3.99512825e-01
  7.00115461e-01  1.55916268e-01  6.07683714e-01  3.91957386e-01  1.54328971e-01
  5.35328142e-01  4.44634542e-01  1.54328971e-01  5.35328142e-01  4.44634542e-01
Coordinates of each shell                  R   N=          15
  0.00000000e+00 -2.09404105e-01  0.00000000e+00  0.00000000e+00 -2.09404105e-01
  0.00000000e+00  0.00000000e+00 -2.09404105e-01  0.00000000e+00  1.48149972e+00
  8.37616400e-01  0.00000000e+00 -1.48149972e+00  8.37616400e-01  0.00000000e+00
Total Energy                               R     -7.496078853337205e+01
Alpha Orbital Energies                     R   N=           7
 -2.02347071e+01 -1.26076932e+00 -6.23969514e-01 -4.40440409e-01 -3.86940283e-01
  5.92930598e-01  7.54244556e-01
Alpha MO coefficients                      R   N=          49
  9.94124523e-01  2.65631346e-02  0.00000000e+00  4.15166721e-03  0.00000000e+00
 -5.97079218e-03 -5.97079218e-03  2.33254081e-01 -8.35396595e-01  0.00000000e+00
 -1.23233192e-01  0.00000000e+00 -1.59552642e-01 -1.59552642e-01  0.00000000e+00
  0.00000000e+00  5.99672594e-01  0.00000000e+00  0.00000000e+00  4.42375216e-01
 -4.42375216e-01  9.97852612e-02 -5.20583363e-01  0.00000000e+00  7.91747247e-01
  0.00000000e+00  2.73180025e-01  2.73180025e-01  0.00000000e+00  0.00000000e+00
  0.00000000e+00  0.00000000e+00  1.00000000e+00  0.00000000e+00  0.00000000e+00
  1.34209520e-01 -8.90870527e-01  0.00000000e+00 -7.14031571e-01  0.00000000e+00
  8.00023369e-01  8.00023369e-01  0.00000000e+00  0.00000000e+00  1.00305424e+00
  0.00000000e+00  0.00000000e+00 -8.33266483e-01  8.33266483e-01
Total SCF Density                          R   N=          28
  2.10529626e+00 -4.40798297e-01  1.93920022e+00  0.00000000e+00  0.00000000e+00
  7.19214440e-01  1.08774670e-01 -6.18223150e-01  0.00000000e+00  1.28413472e+00
  0.00000000e+00  0.00000000e+00  0.00000000e+00  0.00000000e+00  2.00000000e+00
 -3.17853512e-02 -1.81636904e-02  5.30560587e-01  4.71853851e-01  0.00000000e+00
  5.91631708e-01 -3.17853512e-02 -1.81636904e-02 -5.30560587e-01  4.71853851e-01
  0.00000000e+00 -1.91151620e-01  5.91631708e-01
