Generated by Psi4
        SP                           RHF                     DEF2-TZVP
Number of atoms                            I                1
Charge                                     I                2
Multiplicity                               I                1
Number of electrons                        I                6
Number of alpha electrons                  I                3
Number of beta electrons                   I                3
Number of basis functions                  I               31
Number of independent functions            I               31
Atomic numbers                             I   N=           1
           8
Nuclear charges                            R   N=           1
  8.00000000e+00
Current cartesian coordinates              R   N=           3
  0.00000000e+00  0.00000000e+00  0.00000000e+00
Integer atomic weights                     I   N=           1
          16
Real atomic weights                        R   N=           1
  1.59949146e+01
Number of primitive shells                 I               20
Number of contracted shells                I               11
Pure/Cartesian d shells                    I                0
Pure/Cartesian f shells                    I                0
Highest angular momentum                   I                3
Largest degree of contraction              I                6
Shell types                                I   N=          11
           0           0           0           0           0           1
           1           1          -2          -2          -3
Number of primitives per shell             I   N=          11
           6           2           1           1           1           4
           1           1           1           1           1
Shell to atom map                          I   N=          11
           1           1           1           1           1           1
           1           1           1           1           1
Primitive exponents                        R   N=          20
  2.70323826e+04  4.05238714e+03  9.22327227e+02  2.61240710e+02  8.53546414e+01
  3.10350352e+01  1.22608607e+01  4.99870760e+00  1.17031082e+00  4.64747410e-01
  1.85045364e-01  6.32749548e+01  1.46270494e+01  4.45012235e+00  1.52757996e+00
  5.29351179e-01  1.74784213e-01  2.31400000e+00  6.45000000e-01  1.42800000e+00
Contraction coefficients                   R   N=          20
  5.72273352e-04  4.43532335e-03  2.30201077e-02  9.28224907e-02  2.93785000e-01
  6.74016045e-01  6.38399370e-01  3.95345871e-01  1.00000000e+00  1.00000000e+00
  1.00000000e+00  1.20183322e-02  8.30054218e-02  3.19917439e-01  7.07155429e-01
  1.00000000e+00  1.00000000e+00  1.00000000e+00  1.00000000e+00  1.00000000e+00
Coordinates of each shell                  R   N=          33
  0.00000000e+00  0.00000000e+00  0.00000000e+00  0.00000000e+00  0.00000000e+00
  0.00000000e+00  0.00000000e+00  0.00000000e+00  0.00000000e+00  0.00000000e+00
  0.00000000e+00  0.00000000e+00  0.00000000e+00  0.00000000e+00  0.00000000e+00
  0.00000000e+00  0.00000000e+00  0.00000000e+00  0.00000000e+00  0.00000000e+00
  0.00000000e+00  0.00000000e+00  0.00000000e+00  0.00000000e+00  0.00000000e+00
  0.00000000e+00  0.00000000e+00  0.00000000e+00  0.00000000e+00  0.00000000e+00
  0.00000000e+00  0.00000000e+00  0.00000000e+00
Total Energy                               R     -7.294497567913261e+01
Alpha Orbital Energies                     R   N=          31
 -2.22947298e+01 -2.49396680e+00 -1.89951154e+00 -1.18977013e+00 -1.18977013e+00
 -3.04719146e-01 -2.03682938e-01 -1.98628781e-01 -1.98628781e-01  6.17015913e-01
  6.17015913e-01  6.43092183e-01  6.43092183e-01  6.52693322e-01  1.67509174e+00
  1.68197518e+00  1.68197518e+00  1.74018546e+00  4.17787784e+00  4.17787784e+00
  4.24436568e+00  4.24436568e+00  4.28500846e+00  4.28500846e+00  4.29868937e+00
  5.21682640e+00  5.21682640e+00  5.27681694e+00  5.27681694e+00  5.29885586e+00
  4.26126591e+01
Alpha MO coefficients                      R   N=         961
  4.36246488e-01  6.43452210e-01  1.72507703e-02 -5.16842121e-03  1.44713067e-03
  0.00000000e+00  0.00000000e+00  0.00000000e+00  0.00000000e+00  0.00000000e+00
  0.00000000e+00  0.00000000e+00  0.00000000e+00  0.00000000e+00 -2.67106279e-04
 -2.98729430e-04 -1.77178010e-05  5.41006997e-04  6.44013714e-05 -1.38173598e-04
 -1.54532197e-04 -9.16538661e-06  2.79861947e-04  3.33147137e-05  0.00000000e+00
  0.00000000e+00  0.00000000e+00  0.00000000e+00  0.00000000e+00  0.00000000e+00
  0.00000000e+00  1.18036364e-01  2.90871710e-01 -5.10657913e-01 -5.62295381e-01
 -5.73150304e-02  0.00000000e+00  0.00000000e+00  0.00000000e+00  0.00000000e+00
  0.00000000e+00  0.00000000e+00  0.00000000e+00  0.00000000e+00  0.00000000e+00
  5.47458722e-04  6.12273257e-04  3.63142518e-05 -1.10884326e-03 -1.31996494e-04
  1.54792249e-03  1.73118357e-03  1.02677416e-04 -3.13521981e-03 -3.73215978e-04
  0.00000000e+00  0.00000000e+00  0.00000000e+00  0.00000000e+00  0.00000000e+00
  0.00000000e+00  0.00000000e+00  0.00000000e+00  0.00000000e+00  0.00000000e+00
  0.00000000e+00  0.00000000e+00 -6.06340074e-01 -3.59623515e-02  1.66813416e-01
 -4.32026531e-01 -2.56237228e-02  1.18857098e-01 -5.71662931e-02 -3.39056318e-03
  1.57273204e-02  0.00000000e+00  0.00000000e+00  0.00000000e+00  0.00000000e+00
  0.00000000e+00  0.00000000e+00  0.00000000e+00  0.00000000e+00  0.00000000e+00
  0.00000000e+00  3.40340664e-03 -3.71343350e-03 -2.20245711e-04 -4.59396936e-03
 -5.46865250e-04  6.76893952e-03  1.21582680e-03  0.00000000e+00  0.00000000e+00
  0.00000000e+00  0.00000000e+00  0.00000000e+00 -2.96454891e-02  5.41758193e-01
  9.03794536e-03 -2.63968659e-02  4.82391041e-01  8.04754581e-03 -7.84153951e-03
  1.43300664e-01  2.39063034e-03  0.00000000e+00  0.00000000e+00  0.00000000e+00
  0.00000000e+00  0.00000000e+00  0.00000000e+00  0.00000000e+00  0.00000000e+00
  0.00000000e+00  0.00000000e+00  5.19901148e-05  1.37074302e-05  1.27721700e-03
 -4.55671445e-04  3.13741612e-03  1.21751930e-03 -6.96123128e-03  0.00000000e+00
  0.00000000e+00  0.00000000e+00  0.00000000e+00  0.00000000e+00  1.43988275e-01
 -8.49034770e-04  5.23191299e-01  1.28209697e-01 -7.55995520e-04  4.65858752e-01
  3.80863929e-02 -2.24578507e-04  1.38389528e-01  0.00000000e+00  0.00000000e+00
  0.00000000e+00  0.00000000e+00  0.00000000e+00  0.00000000e+00  0.00000000e+00
  0.00000000e+00  0.00000000e+00  0.00000000e+00  3.00961940e-03  5.16182840e-03
  2.84101352e-04 -4.68511848e-03 -6.12850412e-04 -1.86359129e-03 -2.10704890e-04
  5.06642020e-02  1.17084848e-01 -6.08197947e-02 -1.52737234e+00  1.92604639e+00
  0.00000000e+00  0.00000000e+00  0.00000000e+00  0.00000000e+00  0.00000000e+00
  0.00000000e+00  0.00000000e+00  0.00000000e+00  0.00000000e+00 -1.89326875e-03
 -2.11741594e-03 -1.25585063e-04  3.83469697e-03  4.56481608e-04  6.58539678e-03
  7.36505270e-03  4.36825184e-04 -1.33383077e-02 -1.58778964e-03  0.00000000e+00
  0.00000000e+00  0.00000000e+00  0.00000000e+00  0.00000000e+00  0.00000000e+00
  0.00000000e+00  0.00000000e+00  0.00000000e+00  0.00000000e+00  0.00000000e+00
  0.00000000e+00 -2.50754443e-01 -1.48723791e-02  6.89863775e-02 -4.37173332e-01
 -2.59289823e-02  1.20273062e-01  1.18061409e+00  7.00228480e-02 -3.24804969e-01
  0.00000000e+00  0.00000000e+00  0.00000000e+00  0.00000000e+00  0.00000000e+00
  0.00000000e+00  0.00000000e+00  0.00000000e+00  0.00000000e+00  0.00000000e+00
  6.57157406e-04 -7.17019912e-04 -4.25268315e-05 -8.87040930e-04 -1.05593186e-04
  1.30700184e-03  2.34761718e-04  0.00000000e+00  0.00000000e+00  0.00000000e+00
  0.00000000e+00  0.00000000e+00  1.84180750e-02 -2.97214400e-01  2.87200061e-03
  3.29761805e-02 -5.32140068e-01  5.14210146e-03 -7.61604695e-02  1.22900945e+00
 -1.18759922e-02  0.00000000e+00  0.00000000e+00  0.00000000e+00  0.00000000e+00
  0.00000000e+00  0.00000000e+00  0.00000000e+00  0.00000000e+00  0.00000000e+00
  0.00000000e+00  9.23304993e-06  3.89712491e-05 -3.89203377e-04  1.00516911e-04
 -9.67020556e-04 -3.88864173e-04  2.13246876e-03  0.00000000e+00  0.00000000e+00
  0.00000000e+00  0.00000000e+00  0.00000000e+00  7.85464709e-02  7.64220632e-03
  2.87151392e-01  1.40631559e-01  1.36827966e-02  5.14123008e-01 -3.24797032e-01
 -3.16012407e-02 -1.18739797e+00  0.00000000e+00  0.00000000e+00  0.00000000e+00
  0.00000000e+00  0.00000000e+00  0.00000000e+00  0.00000000e+00  0.00000000e+00
  0.00000000e+00  0.00000000e+00  9.23148530e-04  1.58267014e-03  9.77848170e-05
 -1.44021313e-03 -1.61651180e-04 -5.61171638e-04 -1.22823704e-04  0.00000000e+00
  0.00000000e+00  0.00000000e+00  0.00000000e+00  0.00000000e+00  0.00000000e+00
  0.00000000e+00  0.00000000e+00  0.00000000e+00  0.00000000e+00  0.00000000e+00
  0.00000000e+00  0.00000000e+00  0.00000000e+00 -2.84830794e-04 -6.79769869e-04
  9.93560543e-03 -5.11207023e-04  2.69336341e-03 -2.74178109e-02 -6.54346444e-02
  9.56401333e-01 -4.92087857e-02  2.59263150e-01  0.00000000e+00  0.00000000e+00
  0.00000000e+00  0.00000000e+00  0.00000000e+00  0.00000000e+00  0.00000000e+00
  0.00000000e+00  0.00000000e+00  0.00000000e+00  0.00000000e+00  0.00000000e+00
  0.00000000e+00  0.00000000e+00  0.00000000e+00  0.00000000e+00  0.00000000e+00
  0.00000000e+00  0.00000000e+00  0.00000000e+00  0.00000000e+00  8.31632611e-03
  2.61244059e-03  4.96616550e-04  5.47589905e-03  7.46180823e-04  8.00529513e-01
  2.51473520e-01  4.78043068e-02  5.27110017e-01  7.18273626e-02  0.00000000e+00
  0.00000000e+00  0.00000000e+00  0.00000000e+00  0.00000000e+00  0.00000000e+00
  0.00000000e+00  0.00000000e+00  0.00000000e+00  0.00000000e+00  0.00000000e+00
  0.00000000e+00  0.00000000e+00  0.00000000e+00  0.00000000e+00  0.00000000e+00
  0.00000000e+00  0.00000000e+00  0.00000000e+00  0.00000000e+00  0.00000000e+00
 -1.32935590e-04  2.65857948e-05  3.91592817e-03  1.75804138e-03 -1.41192183e-02
 -8.93901267e-03  1.78771356e-03  2.63319489e-01  1.18216304e-01 -9.49421231e-01
  0.00000000e+00  0.00000000e+00  0.00000000e+00  0.00000000e+00  0.00000000e+00
  0.00000000e+00  0.00000000e+00  0.00000000e+00  0.00000000e+00  0.00000000e+00
  0.00000000e+00  0.00000000e+00  0.00000000e+00  0.00000000e+00  0.00000000e+00
  0.00000000e+00  0.00000000e+00  0.00000000e+00  0.00000000e+00  0.00000000e+00
  0.00000000e+00  6.52631793e-03 -1.26676928e-02 -6.71595548e-04 -3.70729742e-03
 -7.33175348e-04  4.38850414e-01 -8.51816030e-01 -4.51602247e-02 -2.49290492e-01
 -4.93010467e-02  0.00000000e+00  0.00000000e+00  0.00000000e+00  0.00000000e+00
  0.00000000e+00  0.00000000e+00  0.00000000e+00  2.77895207e-03  1.00361767e-02
 -8.12416123e-02  1.39341377e-01 -7.62692335e-02  0.00000000e+00  0.00000000e+00
  0.00000000e+00  0.00000000e+00  0.00000000e+00  0.00000000e+00  0.00000000e+00
  0.00000000e+00  0.00000000e+00  6.13895948e-03  6.86576095e-03  4.07211925e-04
 -1.24340769e-02 -1.48015019e-03  3.91405726e-01  4.37744891e-01  2.59628818e-02
 -7.92767721e-01 -9.43709207e-02  0.00000000e+00  0.00000000e+00  0.00000000e+00
  0.00000000e+00  0.00000000e+00  0.00000000e+00  0.00000000e+00  0.00000000e+00
  0.00000000e+00  0.00000000e+00  0.00000000e+00  0.00000000e+00 -1.10348568e+00
 -6.54483212e-02  3.03585766e-01  1.62063752e+00  9.61208713e-02 -4.45862137e-01
 -7.78719720e-01 -4.61862798e-02  2.14237690e-01  0.00000000e+00  0.00000000e+00
  0.00000000e+00  0.00000000e+00  0.00000000e+00  0.00000000e+00  0.00000000e+00
  0.00000000e+00  0.00000000e+00  0.00000000e+00 -3.03457948e-03  3.31100874e-03
  1.96377685e-04  4.09612093e-03  4.87601467e-04 -6.03538959e-03 -1.08406766e-03
  0.00000000e+00  0.00000000e+00  0.00000000e+00  0.00000000e+00  0.00000000e+00
  3.12308048e-01  1.85126602e-02  1.13918082e+00 -4.36365454e-01 -2.58664015e-02
 -1.59169499e+00  2.09036213e-01  1.23910235e-02  7.62484493e-01  0.00000000e+00
  0.00000000e+00  0.00000000e+00  0.00000000e+00  0.00000000e+00  0.00000000e+00
  0.00000000e+00  0.00000000e+00  0.00000000e+00  0.00000000e+00 -2.50541849e-03
 -4.29598406e-03 -2.54787671e-04  3.90560615e-03  4.64946188e-04  1.53342717e-03
  2.75378886e-04  0.00000000e+00  0.00000000e+00  0.00000000e+00  0.00000000e+00
  0.00000000e+00  6.99414170e-02 -1.17928799e+00 -1.01033791e-05 -9.77240849e-02
  1.64773384e+00  1.41167211e-05  4.68136797e-02 -7.89329308e-01 -6.76246456e-06
  0.00000000e+00  0.00000000e+00  0.00000000e+00  0.00000000e+00  0.00000000e+00
  0.00000000e+00  0.00000000e+00  0.00000000e+00  0.00000000e+00  0.00000000e+00
  2.22205223e-08 -6.27624733e-05  1.05884583e-03 -3.11899524e-04  2.61983271e-03
  1.04002420e-03 -5.79026214e-03  1.21731774e-01  4.29065584e-01 -2.84875615e+00
  3.87799504e+00 -1.65879232e+00  0.00000000e+00  0.00000000e+00  0.00000000e+00
  0.00000000e+00  0.00000000e+00  0.00000000e+00  0.00000000e+00  0.00000000e+00
  0.00000000e+00 -5.25992877e-03 -5.88266035e-03 -3.48903707e-04  1.06536554e-02
  1.26820914e-03 -8.96725350e-03 -1.00289013e-02 -5.94819460e-04  1.81626089e-02
  2.16207355e-03  0.00000000e+00  0.00000000e+00  0.00000000e+00  0.00000000e+00
  0.00000000e+00  0.00000000e+00  0.00000000e+00  0.00000000e+00  0.00000000e+00
  0.00000000e+00  0.00000000e+00  0.00000000e+00  0.00000000e+00  0.00000000e+00
  0.00000000e+00  0.00000000e+00  0.00000000e+00  0.00000000e+00  0.00000000e+00
  0.00000000e+00  0.00000000e+00  0.00000000e+00  0.00000000e+00  0.00000000e+00
  0.00000000e+00  0.00000000e+00  0.00000000e+00  0.00000000e+00  0.00000000e+00
  0.00000000e+00  0.00000000e+00  1.36722235e-01 -6.39853706e-03  8.84607668e-01
  8.47490820e-02  3.19148015e-01 -1.39057306e-02  2.99172411e-01  0.00000000e+00
  0.00000000e+00  0.00000000e+00  0.00000000e+00  0.00000000e+00  0.00000000e+00
  0.00000000e+00  0.00000000e+00  0.00000000e+00  0.00000000e+00  0.00000000e+00
  0.00000000e+00  0.00000000e+00  0.00000000e+00  0.00000000e+00  0.00000000e+00
  0.00000000e+00  0.00000000e+00  0.00000000e+00  0.00000000e+00  0.00000000e+00
  0.00000000e+00  0.00000000e+00  0.00000000e+00  6.95567270e-01  2.43828265e-01
 -1.59493444e-01  6.22841064e-01  1.33934673e-02  2.06623586e-01 -2.21835270e-02
  0.00000000e+00  0.00000000e+00  0.00000000e+00  0.00000000e+00  0.00000000e+00
  0.00000000e+00  0.00000000e+00  0.00000000e+00  0.00000000e+00  0.00000000e+00
  0.00000000e+00  0.00000000e+00  0.00000000e+00  0.00000000e+00  0.00000000e+00
  0.00000000e+00  0.00000000e+00  0.00000000e+00  0.00000000e+00  0.00000000e+00
  0.00000000e+00  0.00000000e+00  0.00000000e+00  0.00000000e+00  2.19326887e-01
 -2.97595788e-01  3.41516105e-01  4.24879305e-02 -7.63735989e-01 -2.36964958e-01
 -3.24729021e-01  0.00000000e+00  0.00000000e+00  0.00000000e+00  0.00000000e+00
  0.00000000e+00  0.00000000e+00  0.00000000e+00  0.00000000e+00  0.00000000e+00
  0.00000000e+00  0.00000000e+00  0.00000000e+00  0.00000000e+00  0.00000000e+00
  0.00000000e+00  0.00000000e+00  0.00000000e+00  0.00000000e+00  0.00000000e+00
  0.00000000e+00  0.00000000e+00  0.00000000e+00  0.00000000e+00  0.00000000e+00
  4.23437630e-01 -5.22567473e-01 -2.17030379e-01 -1.38928585e-01  3.81672062e-01
 -5.77711366e-01  4.23849959e-02  0.00000000e+00  0.00000000e+00  0.00000000e+00
  0.00000000e+00  0.00000000e+00 -1.86954829e-05  2.69396615e-03  5.12821686e-04
  1.08141657e-04 -1.55829065e-02 -2.96635219e-03 -4.77551741e-05  6.88138536e-03
  1.30993615e-03  0.00000000e+00  0.00000000e+00  0.00000000e+00  0.00000000e+00
  0.00000000e+00  0.00000000e+00  0.00000000e+00  0.00000000e+00  0.00000000e+00
  0.00000000e+00  7.43521984e-02  1.18061792e-01  1.66525070e-01 -1.62725125e-01
  3.79517267e-01  1.10633702e-01 -8.77462141e-01  0.00000000e+00  0.00000000e+00
  0.00000000e+00  0.00000000e+00  0.00000000e+00  7.42713672e-04 -4.88693284e-04
  2.59429075e-03 -4.29613331e-03  2.82678450e-03 -1.50063468e-02  1.89716526e-03
 -1.24830329e-03  6.62677754e-03  0.00000000e+00  0.00000000e+00  0.00000000e+00
  0.00000000e+00  0.00000000e+00  0.00000000e+00  0.00000000e+00  0.00000000e+00
  0.00000000e+00  0.00000000e+00  3.76137020e-01  6.46817209e-01  6.82970130e-03
 -5.77091717e-01 -1.47546353e-01 -2.61075886e-01  1.30484799e-01  0.00000000e+00
  0.00000000e+00  0.00000000e+00  0.00000000e+00  0.00000000e+00  3.19350129e-03
  1.89408256e-04 -8.78580986e-04 -1.90308934e-02 -1.12873239e-03  5.23568948e-03
  8.39385936e-03  4.97844253e-04 -2.30927893e-03  0.00000000e+00  0.00000000e+00
  0.00000000e+00  0.00000000e+00  0.00000000e+00  0.00000000e+00  0.00000000e+00
  0.00000000e+00  0.00000000e+00  0.00000000e+00 -3.50777385e-01  3.82730784e-01
  2.26999659e-02  4.73484578e-01  5.63635154e-02 -6.97651252e-01 -1.25311076e-01
  0.00000000e+00  0.00000000e+00  0.00000000e+00  0.00000000e+00  0.00000000e+00
  0.00000000e+00  0.00000000e+00  0.00000000e+00  0.00000000e+00  0.00000000e+00
  0.00000000e+00  0.00000000e+00  0.00000000e+00  0.00000000e+00  6.65730234e-02
 -4.52034839e-02  1.11872409e+00  7.58341830e-03  3.10507519e-01 -3.45691581e-02
  2.34726666e-02 -5.80916232e-01 -3.93781704e-03 -1.61236233e-01  0.00000000e+00
  0.00000000e+00  0.00000000e+00  0.00000000e+00  0.00000000e+00  0.00000000e+00
  0.00000000e+00  0.00000000e+00  0.00000000e+00  0.00000000e+00  0.00000000e+00
  0.00000000e+00  0.00000000e+00  0.00000000e+00  0.00000000e+00  0.00000000e+00
  0.00000000e+00  0.00000000e+00  0.00000000e+00  0.00000000e+00  0.00000000e+00
  9.34847917e-01  3.00657321e-01 -6.20261170e-02  6.19384733e-01  5.16836563e-02
 -4.85435448e-01 -1.56121353e-01  3.22081007e-02 -3.21625903e-01 -2.68376047e-02
  0.00000000e+00  0.00000000e+00  0.00000000e+00  0.00000000e+00  0.00000000e+00
  0.00000000e+00  0.00000000e+00  0.00000000e+00  0.00000000e+00  0.00000000e+00
  0.00000000e+00  0.00000000e+00  0.00000000e+00  0.00000000e+00  0.00000000e+00
  0.00000000e+00  0.00000000e+00  0.00000000e+00  0.00000000e+00  0.00000000e+00
  0.00000000e+00  4.51798416e-02 -1.05839236e-01  3.01272877e-01  1.06239449e-01
 -1.11314195e+00 -2.36079930e-02  5.53045755e-02 -1.57425253e-01 -5.55137001e-02
  5.81654260e-01  0.00000000e+00  0.00000000e+00  0.00000000e+00  0.00000000e+00
  0.00000000e+00  0.00000000e+00  0.00000000e+00  0.00000000e+00  0.00000000e+00
  0.00000000e+00  0.00000000e+00  0.00000000e+00  0.00000000e+00  0.00000000e+00
  0.00000000e+00  0.00000000e+00  0.00000000e+00  0.00000000e+00  0.00000000e+00
  0.00000000e+00  0.00000000e+00  5.12772253e-01 -9.93327752e-01 -8.60127365e-02
 -3.05616476e-01  6.28115666e-02 -2.67940819e-01  5.19047297e-01  4.49445596e-02
  1.59694930e-01 -3.28211648e-02  0.00000000e+00  0.00000000e+00  0.00000000e+00
  0.00000000e+00  0.00000000e+00  0.00000000e+00  0.00000000e+00  2.76950764e-03
  3.97661117e-03 -3.01212390e-02  3.60410854e-02 -9.65816542e-03  0.00000000e+00
  0.00000000e+00  0.00000000e+00  0.00000000e+00  0.00000000e+00  0.00000000e+00
  0.00000000e+00  0.00000000e+00  0.00000000e+00  4.59420967e-01  5.13812569e-01
  3.04744961e-02 -9.30528321e-01 -1.10769917e-01 -2.40442103e-01 -2.68908438e-01
 -1.59491021e-02  4.87000382e-01  5.79724340e-02  0.00000000e+00  0.00000000e+00
  0.00000000e+00  0.00000000e+00  0.00000000e+00  0.00000000e+00  0.00000000e+00
  1.38573443e+00 -1.66576192e+00  1.32176616e+00 -1.10366597e+00  3.91044233e-01
  0.00000000e+00  0.00000000e+00  0.00000000e+00  0.00000000e+00  0.00000000e+00
  0.00000000e+00  0.00000000e+00  0.00000000e+00  0.00000000e+00 -3.61760661e-04
 -4.04590098e-04 -2.39964534e-05  7.32723502e-04  8.72232682e-05  1.54236545e-04
  1.72496863e-04  1.02308805e-05 -3.12396438e-04 -3.71876134e-05  0.00000000e+00
  0.00000000e+00  0.00000000e+00  0.00000000e+00  0.00000000e+00  0.00000000e+00
  0.00000000e+00
Total SCF Density                          R   N=         496
  4.08487163e-01  6.30074412e-01  9.97274197e-01 -1.05501230e-01 -2.74871788e-01
  5.22138186e-01 -1.37252015e-01 -3.33762902e-01  5.74102853e-01  6.32405617e-01
 -1.22679042e-02 -3.14803229e-02  5.85866758e-02  6.44409950e-02  6.57421379e-03
  0.00000000e+00  0.00000000e+00  0.00000000e+00  0.00000000e+00  0.00000000e+00
  7.35296570e-01  0.00000000e+00  0.00000000e+00  0.00000000e+00  0.00000000e+00
  0.00000000e+00  4.36108298e-02  2.58658146e-03  0.00000000e+00  0.00000000e+00
  0.00000000e+00  0.00000000e+00  0.00000000e+00 -2.02291318e-01 -1.19980054e-02
  5.56534316e-02  0.00000000e+00  0.00000000e+00  0.00000000e+00  0.00000000e+00
  0.00000000e+00  5.23909997e-01  3.10733800e-02 -1.44135643e-01  3.73293847e-01
  0.00000000e+00  0.00000000e+00  0.00000000e+00  0.00000000e+00  0.00000000e+00
  3.10733800e-02  1.84297866e-03 -8.54876147e-03  2.21402561e-02  1.31315034e-03
  0.00000000e+00  0.00000000e+00  0.00000000e+00  0.00000000e+00  0.00000000e+00
 -1.44135643e-01 -8.54876147e-03  3.96539171e-02 -1.02698839e-01 -6.09112266e-03
  2.82540194e-02  0.00000000e+00  0.00000000e+00  0.00000000e+00  0.00000000e+00
  0.00000000e+00  6.93244287e-02  4.11166866e-03 -1.90722093e-02  4.93947106e-02
  2.92962650e-03 -1.35892394e-02  6.53597013e-03  0.00000000e+00  0.00000000e+00
  0.00000000e+00  0.00000000e+00  0.00000000e+00  4.11166866e-03  2.43865250e-04
 -1.13118285e-03  2.92962650e-03  1.73757702e-04 -8.05984999e-04  3.87651857e-04
  2.29918374e-05  0.00000000e+00  0.00000000e+00  0.00000000e+00  0.00000000e+00
  0.00000000e+00 -1.90722093e-02 -1.13118285e-03  5.24705610e-03 -1.35892394e-02
 -8.05984999e-04  3.73860733e-03 -1.79814522e-03 -1.06648947e-04  4.94697217e-04
 -1.03808279e-04 -2.52597428e-05 -5.68343834e-04 -6.12905986e-04 -6.35283019e-05
  0.00000000e+00  0.00000000e+00  0.00000000e+00  0.00000000e+00  0.00000000e+00
  0.00000000e+00  0.00000000e+00  0.00000000e+00  0.00000000e+00  7.42113633e-07
 -1.16098312e-04 -2.82502851e-05 -6.35630992e-04 -6.85468930e-04 -7.10495217e-05
  0.00000000e+00  0.00000000e+00  0.00000000e+00  0.00000000e+00  0.00000000e+00
  0.00000000e+00  0.00000000e+00  0.00000000e+00  0.00000000e+00  8.29973682e-07
  9.28235626e-07 -6.88585247e-06 -1.67553940e-06 -3.76996115e-05 -4.06555260e-05
 -4.21398484e-06  0.00000000e+00  0.00000000e+00  0.00000000e+00  0.00000000e+00
  0.00000000e+00  0.00000000e+00  0.00000000e+00  0.00000000e+00  0.00000000e+00
  4.92261795e-08  5.50541476e-08  3.26529071e-09  2.10257151e-04  5.11620228e-05
  1.15114475e-03  1.24140259e-03  1.28672586e-04  0.00000000e+00  0.00000000e+00
  0.00000000e+00  0.00000000e+00  0.00000000e+00  0.00000000e+00  0.00000000e+00
  0.00000000e+00  0.00000000e+00 -1.50310456e-06 -1.68105958e-06 -9.97045356e-08
  3.04444391e-06  2.50289718e-05  6.09031760e-06  1.37032055e-04  1.47776331e-04
  1.53171605e-05  0.00000000e+00  0.00000000e+00  0.00000000e+00  0.00000000e+00
  0.00000000e+00  0.00000000e+00  0.00000000e+00  0.00000000e+00  0.00000000e+00
 -1.78929285e-07 -2.00113017e-07 -1.18688092e-08  3.62410032e-07  4.31412222e-08
  2.44866790e-04  7.22677509e-04 -1.58568494e-03 -1.73935106e-03 -1.77838360e-04
  0.00000000e+00  0.00000000e+00  0.00000000e+00  0.00000000e+00  0.00000000e+00
  0.00000000e+00  0.00000000e+00  0.00000000e+00  0.00000000e+00  1.76866141e-06
  1.97805613e-06  1.17319559e-07 -3.58231262e-06 -4.26437822e-07  4.83031197e-06
  2.73856971e-04  8.08236484e-04 -1.77341678e-03 -1.94527568e-03 -1.98892935e-04
  0.00000000e+00  0.00000000e+00  0.00000000e+00  0.00000000e+00  0.00000000e+00
  0.00000000e+00  0.00000000e+00  0.00000000e+00  0.00000000e+00  1.97805613e-06
  2.21224144e-06  1.31209214e-07 -4.00642849e-06 -4.76924495e-07  5.40218051e-06
  6.04175352e-06  1.62426023e-05  4.79369348e-05 -1.05182290e-04 -1.15375333e-04
 -1.17964455e-05  0.00000000e+00  0.00000000e+00  0.00000000e+00  0.00000000e+00
  0.00000000e+00  0.00000000e+00  0.00000000e+00  0.00000000e+00  0.00000000e+00
  1.17319559e-07  1.31209214e-07  7.78208809e-09 -2.37623400e-07 -2.82866449e-08
  3.20406193e-07  3.58339607e-07  2.12533123e-08 -4.95962307e-04 -1.46373792e-03
  3.21170527e-03  3.52294635e-03  3.60200431e-04  0.00000000e+00  0.00000000e+00
  0.00000000e+00  0.00000000e+00  0.00000000e+00  0.00000000e+00  0.00000000e+00
  0.00000000e+00  0.00000000e+00 -3.58231262e-06 -4.00642849e-06 -2.37623400e-07
  7.25574928e-06  8.63723032e-07 -9.78349358e-06 -1.09417774e-05 -6.48962625e-07
  1.98158519e-05 -5.90392600e-05 -1.74243087e-04  3.82320793e-04  4.19370872e-04
  4.28781917e-05  0.00000000e+00  0.00000000e+00  0.00000000e+00  0.00000000e+00
  0.00000000e+00  0.00000000e+00  0.00000000e+00  0.00000000e+00  0.00000000e+00
 -4.26437822e-07 -4.76924495e-07 -2.82866449e-08  8.63723032e-07  1.02817428e-07
 -1.16462524e-06 -1.30250713e-06 -7.72523891e-08  2.35887529e-06  2.80800072e-07
  0.00000000e+00  0.00000000e+00  0.00000000e+00  0.00000000e+00  0.00000000e+00
 -4.12724366e-03 -2.44789012e-04  1.13546777e-03 -2.94072392e-03 -1.74415896e-04
  8.09038071e-04 -3.89120282e-04 -2.30789304e-05  1.07052934e-04  0.00000000e+00
  0.00000000e+00  0.00000000e+00  0.00000000e+00  0.00000000e+00  0.00000000e+00
  0.00000000e+00  0.00000000e+00  0.00000000e+00  0.00000000e+00  2.31663534e-05
  0.00000000e+00  0.00000000e+00  0.00000000e+00  0.00000000e+00  0.00000000e+00
  4.50320708e-03  2.67087602e-04 -1.23890106e-03  3.20860358e-03  1.90303981e-04
 -8.82735858e-04  4.24566456e-04  2.51812618e-05 -1.16804717e-04  0.00000000e+00
  0.00000000e+00  0.00000000e+00  0.00000000e+00  0.00000000e+00  0.00000000e+00
  0.00000000e+00  0.00000000e+00  0.00000000e+00  0.00000000e+00 -2.52766484e-05
  2.75791767e-05  0.00000000e+00  0.00000000e+00  0.00000000e+00  0.00000000e+00
  0.00000000e+00  2.67087602e-04  1.58411074e-05 -7.34798791e-05  1.90303981e-04
  1.12870301e-05 -5.23555322e-05  2.51812618e-05  1.49351400e-06 -6.92774976e-06
  0.00000000e+00  0.00000000e+00  0.00000000e+00  0.00000000e+00  0.00000000e+00
  0.00000000e+00  0.00000000e+00  0.00000000e+00  0.00000000e+00  0.00000000e+00
 -1.49917143e-06  1.63573561e-06  9.70163469e-08  0.00000000e+00  0.00000000e+00
  0.00000000e+00  0.00000000e+00  0.00000000e+00  5.57101544e-03  3.30419882e-04
 -1.53267144e-03  3.96943329e-03  2.35429195e-04 -1.09205173e-03  5.25240397e-04
  3.11522867e-05 -1.44501656e-04  0.00000000e+00  0.00000000e+00  0.00000000e+00
  0.00000000e+00  0.00000000e+00  0.00000000e+00  0.00000000e+00  0.00000000e+00
  0.00000000e+00  0.00000000e+00 -3.12702916e-05  3.41187994e-05  2.02360410e-06
  4.22091089e-05  0.00000000e+00  0.00000000e+00  0.00000000e+00  0.00000000e+00
  0.00000000e+00  6.63172632e-04  3.93331208e-05 -1.82448921e-04  4.72520594e-04
  2.80254472e-05 -1.29997633e-04  6.25245183e-05  3.70836236e-06 -1.72014501e-05
  0.00000000e+00  0.00000000e+00  0.00000000e+00  0.00000000e+00  0.00000000e+00
  0.00000000e+00  0.00000000e+00  0.00000000e+00  0.00000000e+00  0.00000000e+00
 -3.72240964e-06  4.06149548e-06  2.40889452e-07  5.02456440e-06  5.98123204e-07
  0.00000000e+00  0.00000000e+00  0.00000000e+00  0.00000000e+00  0.00000000e+00
 -8.20855857e-03 -4.86853965e-04  2.25829985e-03 -5.84872291e-03 -3.46890860e-04
  1.60907301e-03 -7.73910361e-04 -4.59010342e-05  2.12914562e-04  0.00000000e+00
  0.00000000e+00  0.00000000e+00  0.00000000e+00  0.00000000e+00  0.00000000e+00
  0.00000000e+00  0.00000000e+00  0.00000000e+00  0.00000000e+00  4.60749073e-05
 -5.02720135e-05 -2.98165980e-06 -6.21926014e-05 -7.40339561e-06  9.16370844e-05
  0.00000000e+00  0.00000000e+00  0.00000000e+00  0.00000000e+00  0.00000000e+00
 -1.47440903e-03 -8.74479819e-05  4.05632445e-04 -1.05053887e-03 -6.23080180e-05
  2.89019291e-04 -1.39008623e-04 -8.24467519e-06  3.82433955e-05  0.00000000e+00
  0.00000000e+00  0.00000000e+00  0.00000000e+00  0.00000000e+00  0.00000000e+00
  0.00000000e+00  0.00000000e+00  0.00000000e+00  0.00000000e+00  8.27590603e-06
 -9.02978397e-06 -5.35561279e-07 -1.11709422e-05 -1.32978686e-06  1.64597162e-05
  2.95646964e-06
