Generated by Psi4
        SP                           RHF                      DEF2-SVP
Number of atoms                            I                5
Charge                                     I                0
Multiplicity                               I                1
Number of electrons                        I               10
Number of alpha electrons                  I                5
Number of beta electrons                   I                5
Number of basis functions                  I               34
Number of independent functions            I               34
Atomic numbers                             I   N=           5
           6           1           1           1           1
Nuclear charges                            R   N=           5
  6.00000000e+00  1.00000000e+00  1.00000000e+00  1.00000000e+00  1.00000000e+00
Current cartesian coordinates              R   N=          15
 -2.59837325e+00  7.76137505e-01  0.00000000e+00 -1.92439406e+00 -1.13023711e+00
  0.00000000e+00 -1.92435927e+00  1.72931194e+00  1.65096206e+00 -1.92435927e+00
  1.72931194e+00 -1.65096206e+00 -4.62038021e+00  7.76162412e-01  0.00000000e+00
Integer atomic weights                     I   N=           5
          12           1           1           1           1
Real atomic weights                        R   N=           5
  1.20000000e+01  1.00782503e+00  1.00782503e+00  1.00782503e+00  1.00782503e+00
Number of primitive shells                 I               32
Number of contracted shells                I               18
Pure/Cartesian d shells                    I                0
Pure/Cartesian f shells                    I                0
Highest angular momentum                   I                2
Largest degree of contraction              I                5
Shell types                                I   N=          18
           0           0           0           1           1          -2
           0           0           1           0           0           1
           0           0           1           0           0           1
Number of primitives per shell             I   N=          18
           5           1           1           3           1           1
           3           1           1           3           1           1
           3           1           1           3           1           1
Shell to atom map                          I   N=          18
           1           1           1           1           1           1
           2           2           2           3           3           3
           4           4           4           5           5           5
Primitive exponents                        R   N=          32
  1.23840169e+03  1.86290050e+02  4.22511763e+01  1.16765579e+01  3.59305065e+00
  4.02451474e-01  1.30901827e-01  9.46809706e+00  2.01035451e+00  5.47710047e-01
  1.52686138e-01  8.00000000e-01  1.30107010e+01  1.96225720e+00  4.44537960e-01
  1.21949620e-01  8.00000000e-01  1.30107010e+01  1.96225720e+00  4.44537960e-01
  1.21949620e-01  8.00000000e-01  1.30107010e+01  1.96225720e+00  4.44537960e-01
  1.21949620e-01  8.00000000e-01  1.30107010e+01  1.96225720e+00  4.44537960e-01
  1.21949620e-01  8.00000000e-01
Contraction coefficients                   R   N=          32
  5.51736505e-03  4.10888286e-02  1.82253821e-01  4.68284594e-01  4.45758173e-01
  1.00000000e+00  1.00000000e+00  5.68883320e-02  3.12940593e-01  7.60650165e-01
  1.00000000e+00  1.00000000e+00  3.34854848e-02  2.34721871e-01  8.13770285e-01
  1.00000000e+00  1.00000000e+00  3.34854848e-02  2.34721871e-01  8.13770285e-01
  1.00000000e+00  1.00000000e+00  3.34854848e-02  2.34721871e-01  8.13770285e-01
  1.00000000e+00  1.00000000e+00  3.34854848e-02  2.34721871e-01  8.13770285e-01
  1.00000000e+00  1.00000000e+00
Coordinates of each shell                  R   N=          54
 -2.59837325e+00  7.76137505e-01  0.00000000e+00 -2.59837325e+00  7.76137505e-01
  0.00000000e+00 -2.59837325e+00  7.76137505e-01  0.00000000e+00 -2.59837325e+00
  7.76137505e-01  0.00000000e+00 -2.59837325e+00  7.76137505e-01  0.00000000e+00
 -2.59837325e+00  7.76137505e-01  0.00000000e+00 -1.92439406e+00 -1.13023711e+00
  0.00000000e+00 -1.92439406e+00 -1.13023711e+00  0.00000000e+00 -1.92439406e+00
 -1.13023711e+00  0.00000000e+00 -1.92435927e+00  1.72931194e+00  1.65096206e+00
 -1.92435927e+00  1.72931194e+00  1.65096206e+00 -1.92435927e+00  1.72931194e+00
  1.65096206e+00 -1.92435927e+00  1.72931194e+00 -1.65096206e+00 -1.92435927e+00
  1.72931194e+00 -1.65096206e+00 -1.92435927e+00  1.72931194e+00 -1.65096206e+00
 -4.62038021e+00  7.76162412e-01  0.00000000e+00 -4.62038021e+00  7.76162412e-01
  0.00000000e+00 -4.62038021e+00  7.76162412e-01  0.00000000e+00
Total Energy                               R     -4.016808481950505e+01
Alpha Orbital Energies                     R   N=          34
 -1.12083073e+01 -9.41002645e-01 -5.50278674e-01 -5.50278640e-01 -5.50278531e-01
  1.88644532e-01  2.77352857e-01  2.77352858e-01  2.77352863e-01  5.91830645e-01
  5.91830770e-01  5.91830802e-01  8.80739236e-01  9.39681790e-01  9.39681839e-01
  9.39681854e-01  1.03341673e+00  1.33728182e+00  1.33728201e+00  1.82569744e+00
  1.82569752e+00  1.82569760e+00  2.06690380e+00  2.06690381e+00  2.06690392e+00
  2.47695883e+00  2.47695909e+00  2.47695917e+00  2.89353353e+00  2.89353375e+00
  3.02035316e+00  3.31300570e+00  3.31300578e+00  3.31300608e+00
Alpha MO coefficients                      R   N=        1156
  9.90501161e-01  3.87699404e-02 -3.09538949e-02  1.52567978e-10 -5.82622583e-10
  0.00000000e+00 -3.73134508e-10  1.37479706e-09  0.00000000e+00  9.55555855e-10
  0.00000000e+00  0.00000000e+00  7.25730439e-10 -6.63834063e-10 -1.68662152e-03
  5.97047287e-03  3.79669930e-04 -1.07391134e-03  0.00000000e+00 -1.68662221e-03
  5.97047288e-03  3.79690100e-04  5.36948769e-04  9.30030443e-04 -1.68662221e-03
  5.97047288e-03  3.79690100e-04  5.36948769e-04 -9.30030443e-04 -1.68662214e-03
  5.97047283e-03 -1.13905012e-03  1.37233933e-08  0.00000000e+00  2.45752218e-01
 -4.53367804e-01 -1.38510393e-01 -7.77942897e-09  2.74718207e-08  0.00000000e+00
  2.10813339e-09 -7.84331583e-09  0.00000000e+00 -1.82753825e-09  0.00000000e+00
  0.00000000e+00 -1.10934844e-09  2.40209581e-09 -1.85680801e-01 -3.07787943e-02
  8.37630766e-03 -2.36926910e-02  0.00000000e+00 -1.85680783e-01 -3.07787813e-02
  8.37673982e-03  1.18461871e-02  2.05183872e-02 -1.85680783e-01 -3.07787813e-02
  8.37673982e-03  1.18461871e-02 -2.05183872e-02 -1.85680783e-01 -3.07787823e-02
 -2.51297856e-02  3.10729805e-07  0.00000000e+00  0.00000000e+00  0.00000000e+00
  0.00000000e+00 -1.75433982e-07  2.50098631e-08  4.28560717e-01 -7.90433647e-08
  1.12684069e-08  1.93091789e-01 -4.21876107e-09  1.49050178e-02  2.10783186e-02
  9.76706224e-09  8.69496064e-10 -7.57028005e-08 -2.99392112e-08 -2.73867842e-09
 -4.95781390e-09  1.15543671e-02  3.22827805e-01  1.27673214e-01 -8.49160676e-03
 -1.20086207e-02 -9.24537364e-03 -3.22827891e-01 -1.27673248e-01  8.49159956e-03
  1.20086253e-02 -9.24537920e-03  1.61852309e-07  6.40099564e-08  8.04191974e-09
  6.74131356e-10  1.15543649e-02  1.35721196e-08 -2.83673342e-08 -2.60163473e-08
  3.94075272e-01 -1.68430908e-01  1.71146418e-07  1.77554088e-01 -7.58880272e-02
  7.71114368e-08  4.69518721e-03  5.95232849e-09  8.41766981e-09 -2.47003187e-02
 -5.85702548e-03  2.67689239e-01  1.05866815e-01  3.58372316e-03  1.53743555e-02
  4.61424680e-09  4.79395396e-02  1.89593181e-02  9.36361540e-03 -6.32430975e-03
 -3.08873074e-03  4.79392818e-02  1.89592161e-02  9.36362218e-03 -6.32430016e-03
  3.08872335e-03 -3.63568055e-01 -1.43785349e-01 -1.80645743e-02 -4.54068882e-03
  4.61426714e-09 -1.73245922e-08  3.59971675e-08  3.17237811e-08  1.68430912e-01
  3.94075282e-01  4.59509237e-08  7.58880627e-02  1.77554155e-01  2.07034081e-08
  2.18585700e-02  1.59813080e-09  2.26003112e-09  9.05129375e-04  1.37054500e-02
 -2.90979712e-01 -1.15077868e-01  1.21945206e-02 -1.10235372e-02  1.23889396e-09
  2.23183184e-01  8.82654128e-02 -1.32952745e-03  2.32259104e-03 -1.43796458e-02
  2.23183114e-01  8.82653854e-02 -1.32952563e-03  2.32259361e-03  1.43796438e-02
 -1.55386594e-01 -6.14529313e-02 -7.72052386e-03  1.06247581e-02  1.23888661e-09
  1.21271987e-01 -6.81710902e-02 -3.40401930e+00 -3.46191173e-09  1.70134730e-08
  0.00000000e+00 -6.42135690e-08  2.53375373e-07 -1.97178824e-12 -3.04555791e-09
  0.00000000e+00  0.00000000e+00 -1.47126317e-09  6.32591677e-09 -3.62595533e-03
  1.19270460e+00 -1.13144648e-03  3.20033804e-03  0.00000000e+00 -3.62595216e-03
  1.19270447e+00 -1.13150240e-03 -1.60015080e-03 -2.77155837e-03 -3.62595216e-03
  1.19270447e+00 -1.13150240e-03 -1.60015080e-03  2.77155837e-03 -3.62595188e-03
  1.19270448e+00  3.39445410e-03 -4.64171952e-08  0.00000000e+00  0.00000000e+00
 -2.52443524e-12  0.00000000e+00  3.83687218e-05  2.51669667e-06  2.87499105e-01
  1.86414065e-04  1.22273314e-05  1.39681178e+00  1.45666051e-07  1.15336608e-03
  1.63105970e-03 -2.23741251e-07  1.01024713e-08 -1.17698399e-06 -8.32700556e-05
  1.56291744e-07 -5.53045534e-07 -2.87316808e-04 -2.65261165e-02 -1.87667818e+00
  4.38671094e-03  6.20363329e-03  1.04578099e-02  2.65229580e-02  1.87645473e+00
 -4.38626529e-03 -6.20289966e-03  1.04565305e-02  4.33545683e-06  3.06725613e-04
  2.11254011e-06 -2.54095163e-09 -2.87311950e-04  1.70932870e-09 -4.90636087e-09
  8.43258978e-09  2.84329622e-01  4.25723209e-02 -3.83183999e-05  1.38141271e+00
  2.06837081e-01 -1.86169596e-04  1.19698571e-03 -1.53722707e-07 -2.17390554e-07
 -1.59015975e-03  1.70829505e-04 -6.17345455e-03 -4.36765231e-01  7.36753734e-04
 -2.93016768e-03  3.82940716e-08 -1.29735706e-02 -9.17854015e-01  1.86135213e-03
  2.99156316e-03  5.25530150e-03 -1.29806411e-02 -9.18354239e-01  1.86252141e-03
  2.99321672e-03 -5.25808900e-03  3.21276723e-02  2.27297347e+00  1.56548632e-02
 -4.27357277e-05  3.82934150e-08  1.66645960e-08 -4.48287144e-08 -5.60950715e-08
  4.25723248e-02 -2.84329633e-01 -3.19261556e-06  2.06837320e-01 -1.38141254e+00
 -1.55112938e-05 -1.24904670e-03 -1.28078717e-08 -1.81125307e-08 -1.06277295e-03
 -1.14059199e-03 -3.18939116e-02 -2.25643257e+00  5.23160850e-03 -1.46340054e-02
  3.19058649e-09  1.35418766e-02  9.58058078e-01 -2.28201506e-03 -2.88286701e-03
 -5.48544946e-03  1.35412875e-02  9.58016400e-01 -2.28191764e-03 -2.88272923e-03
  5.48521721e-03  4.81079555e-03  3.40358147e-01  2.34418451e-03  2.84098674e-04
  3.19053428e-09 -2.13731934e-08  2.10798593e-07 -4.94758325e-07  1.32194226e-01
  2.80574294e-01 -9.31870304e-08 -5.73623011e-01 -1.21748031e+00  4.04364059e-07
  6.68925666e-02 -1.36072352e-08 -1.92430217e-08  1.72134219e-05  4.09688786e-02
 -6.14649940e-01 -4.25551612e-02 -2.04243363e-02 -5.50515065e-03  9.00942825e-09
  4.91596131e-01  3.40356162e-02 -6.66674193e-03 -1.84799127e-02  1.49754986e-02
  4.91596555e-01  3.40356455e-02 -6.66673665e-03 -1.84799053e-02 -1.49754935e-02
 -3.68542436e-01 -2.55159591e-02  9.69540277e-04 -2.71261075e-02  9.00943204e-09
  1.72945333e-08 -1.71760156e-07  3.91136461e-07  2.80574309e-01 -1.32194238e-01
 -1.88132353e-07 -1.21748145e+00  5.73623540e-01  8.16353154e-07  1.18399331e-02
 -2.74710178e-08 -3.88488583e-08 -7.51024533e-02 -1.93002766e-02  6.08209940e-01
  4.21103414e-02 -1.95622639e-02 -8.61369241e-03  1.81886520e-08  8.70116543e-02
  6.02437363e-03 -2.60438264e-02  1.43108701e-02  2.65065871e-03  8.70125108e-02
  6.02443293e-03 -2.60438157e-02  1.43108852e-02 -2.65064842e-03 -7.82234364e-01
 -5.41592443e-02  2.05870332e-03  1.27802115e-02  1.81886634e-08  0.00000000e+00
  0.00000000e+00  1.42265906e-12  2.09906864e-07  4.11450821e-09  3.10156834e-01
 -9.10836709e-07 -1.78520954e-08 -1.34584767e+00  2.72798217e-08  4.52889972e-02
  6.40466198e-02 -4.55498531e-08  6.02216533e-10  1.84249384e-07  1.27567397e-08
 -1.80024349e-08 -6.87887709e-09 -2.99859877e-02  7.06028587e-01  4.88833313e-02
  8.78064375e-03  1.24174045e-02 -8.47831024e-03 -7.06028186e-01 -4.88833036e-02
 -8.78067935e-03 -1.24173982e-02 -8.47832246e-03 -5.85211113e-07 -4.05179992e-08
  1.54001212e-09 -3.97961607e-10 -2.99860222e-02  3.21988249e-01 -2.23492540e+00
  6.10175328e+00 -3.80495350e-09  5.89591638e-08 -4.02420023e-12  1.09123625e-07
 -4.90974091e-07  6.13186915e-12  1.59771544e-08  0.00000000e+00  0.00000000e+00
  2.02542578e-08  1.92347790e-08  3.78523046e-02 -1.35895770e+00  3.23298088e-02
 -9.14461952e-02  0.00000000e+00  3.78525239e-02 -1.35895767e+00  3.23315527e-02
  4.57225037e-02  7.91943548e-02  3.78525239e-02 -1.35895767e+00  3.23315527e-02
  4.57225037e-02 -7.91943548e-02  3.78525108e-02 -1.35895769e+00 -9.69929030e-02
  1.13959107e-06  0.00000000e+00 -1.89786481e-08 -7.45220382e-08  7.48900441e-07
  3.86433378e-01  8.20881564e-01 -1.31219696e-06 -6.54199703e-01 -1.38968447e+00
  2.22144120e-06 -1.57217779e-01  1.53955083e-07  2.17719595e-07 -9.85078995e-05
 -9.63097860e-02  3.97209586e-01 -1.24416296e+00  1.14256673e-01 -1.33449941e-01
 -1.30079566e-07 -3.17565532e-01  9.94696056e-01 -2.24161602e-02 -4.49915449e-03
 -1.48739695e-01 -3.17566851e-01  9.94700188e-01 -2.24164125e-02 -4.49951125e-03
  1.48740052e-01  2.37922087e-01 -7.45233698e-01 -9.81740205e-02  8.13765622e-02
 -1.30079532e-07  1.16555208e-08  1.00653949e-07 -7.60252210e-07  8.20881503e-01
 -3.86433341e-01  6.20543374e-06 -1.38968459e+00  6.54199714e-01 -1.05052869e-05
 -2.78807485e-02 -7.28060313e-07 -1.02960547e-06  1.76523773e-01  4.53324734e-02
 -3.92789406e-01  1.23031765e+00  6.27095587e-03  1.74126724e-01  6.15151880e-07
 -5.63195928e-02  1.76408017e-01  7.06056480e-02 -5.35372186e-02 -2.63781362e-02
 -5.63133536e-02  1.76388475e-01  7.06068411e-02 -5.35355315e-02  2.63764443e-02
  5.05422983e-01 -1.58311369e+00 -2.08555620e-01 -3.83040003e-02  6.15151739e-07
  1.44041200e-12 -9.06385263e-12  2.38636913e-11 -5.05554299e-06  3.83024190e-06
  9.07291100e-01  8.55861714e-06 -6.48428279e-06 -1.53596897e+00 -3.66901834e-08
 -1.06449066e-01 -1.50537728e-01 -1.20747999e-06 -4.49343249e-07  3.26096911e-06
 -1.02141925e-05  1.22357100e-07 -1.38394957e-06  8.99408191e-02 -4.56113547e-01
  1.42866449e+00 -8.72169425e-02 -1.23339039e-01 -1.23691318e-01  4.56113399e-01
 -1.42866402e+00  8.72159118e-02  1.23339758e-01 -1.23691249e-01 -3.11274494e-06
  9.74991334e-06  1.28443206e-06  3.79674091e-07  8.99408044e-02  4.28361239e-02
  5.49524448e-01 -3.16403550e+00 -5.68059052e-08  1.81138358e-07 -2.59596102e-12
 -6.32833138e-08  2.97922916e-07  4.71766902e-12  1.07287999e-07  0.00000000e+00
  0.00000000e+00  4.40625049e-08 -2.47329661e-07  7.74691792e-01  3.79043579e-01
  3.70482431e-02 -1.04791740e-01  0.00000000e+00  7.74691273e-01  3.79043822e-01
  3.70498355e-02  5.23950904e-02  9.07520008e-02  7.74691273e-01  3.79043822e-01
  3.70498355e-02  5.23950904e-02 -9.07520008e-02  7.74691312e-01  3.79043818e-01
 -1.11147929e-01  1.62273200e-06  0.00000000e+00  0.00000000e+00  0.00000000e+00
  0.00000000e+00  0.00000000e+00  0.00000000e+00 -7.25205088e-08  0.00000000e+00
  0.00000000e+00  2.08881564e-08 -8.93912817e-09  2.93307881e-01 -2.07405470e-01
 -5.16064364e-09  1.45976607e-08  0.00000000e+00  0.00000000e+00 -1.72875990e-08
 -6.11189379e-09  3.68432576e-01  1.74098508e-08 -4.04377544e-08  3.00821255e-01
 -2.12718385e-01 -1.91240942e-08 -1.74099001e-08  4.04375294e-08 -3.00821237e-01
  2.12718409e-01  2.04871623e-09  0.00000000e+00  0.00000000e+00  0.00000000e+00
 -1.83362391e-08 -3.68432421e-01  6.46021001e-08 -1.05230192e-06  3.70187031e-06
 -7.38134663e-08 -3.18652178e-08  0.00000000e+00  2.04883748e-08  8.08370904e-09
  0.00000000e+00  1.79615249e-01  1.45973866e-08 -1.03222212e-08  1.03693770e-01
 -2.93313119e-01 -5.01633692e-07 -6.20530904e-07  3.47363017e-01  1.22806765e-01
  1.83362618e-08 -4.88027139e-07 -6.50826581e-07 -1.73683747e-01 -2.45619652e-01
  2.12714380e-01 -4.88026995e-07 -6.50826947e-07 -1.73683777e-01 -2.45619631e-01
 -2.12714380e-01 -5.21736997e-07 -5.73835311e-07  4.64860320e-06  3.68432580e-01
 -1.83361881e-08  0.00000000e+00  0.00000000e+00  0.00000000e+00  0.00000000e+00
  0.00000000e+00 -2.09191515e-07  0.00000000e+00  0.00000000e+00  8.97321408e-07
  0.00000000e+00  1.73754339e-07  2.44790394e-07  0.00000000e+00  0.00000000e+00
  0.00000000e+00  0.00000000e+00  4.61059949e-08  1.63002664e-08  2.17726802e-01
 -3.79814659e-07 -2.43190274e-07  3.99499458e-01  3.29795341e-01 -3.53503831e-01
  3.79814563e-07  2.43190396e-07 -3.99499504e-01 -3.29795309e-01 -3.53503831e-01
  0.00000000e+00  0.00000000e+00  0.00000000e+00 -4.89028088e-08  4.89279555e-01
  0.00000000e+00  0.00000000e+00 -1.52980434e-12  6.38292374e-08 -1.26474085e-07
  0.00000000e+00 -2.58795338e-07  5.39829097e-07  0.00000000e+00  8.34600392e-08
  0.00000000e+00  0.00000000e+00  1.51118892e-07  1.02329327e-07  3.07412342e-07
  1.98854592e-07  5.98182986e-01  2.11481162e-01 -3.06979442e-07 -8.68593834e-08
 -5.59466192e-08 -2.99087332e-01  2.11491906e-01  1.24829526e-07 -8.68597018e-08
 -5.59466259e-08 -2.99087591e-01  2.11492346e-01  2.31690676e-08 -1.33693074e-07
 -8.69598339e-08 -7.69186621e-06 -6.34466198e-01  1.58981311e-07  0.00000000e+00
  0.00000000e+00  0.00000000e+00  0.00000000e+00  0.00000000e+00 -1.25632421e-07
  0.00000000e+00  0.00000000e+00  5.45604208e-07  0.00000000e+00  1.05728811e-07
  1.46077817e-07  0.00000000e+00  0.00000000e+00  0.00000000e+00  0.00000000e+00
  2.91291102e-07  1.02982807e-07  5.95937730e-01 -2.30442237e-07 -1.48034565e-07
 -3.29795389e-01  3.99499580e-01 -9.60085710e-02  2.30442161e-07  1.48034770e-07
  3.29795098e-01 -3.99499374e-01 -9.60085710e-02  0.00000000e+00  0.00000000e+00
 -3.66752390e-12 -3.08959662e-07 -4.03921384e-01  0.00000000e+00  0.00000000e+00
  0.00000000e+00 -1.45439658e-07 -7.71565739e-08  1.50836673e-01  9.01433020e-07
  4.78214643e-07 -9.34884537e-01  2.61542199e-07 -1.78953666e-01 -2.53072069e-01
 -1.94089140e-07  9.15442645e-08  7.47492402e-08  3.21405640e-08 -4.75475796e-07
 -2.49812226e-07  4.92370423e-01  3.79376681e-01  1.63125502e-01 -3.67296912e-03
 -5.19346911e-03  4.83373710e-01 -3.79377204e-01 -1.63125727e-01  3.67202468e-03
  5.19297255e-03  4.83373698e-01  4.48011664e-07  1.92637164e-07 -4.61741714e-07
 -2.51858756e-07  4.92370233e-01  4.48802603e-10 -5.10875079e-09  3.69672353e-08
  1.43486230e-01  4.65123354e-02  1.62144302e-07 -8.89326174e-01 -2.88282594e-01
 -1.00496926e-06 -2.15008982e-01 -1.92369143e-07 -2.72043912e-07  2.16321991e-01
 -5.51890133e-02  1.22436389e-02  5.26479291e-03  4.68257485e-01  1.52163658e-01
  5.29281601e-07  2.14876416e-01  9.23929232e-02  4.66296167e-01  1.48886672e-01
 -5.09451672e-03  2.14875600e-01  9.23925725e-02  4.66296175e-01  1.48886683e-01
  5.09555594e-03 -4.41995674e-01 -1.90050319e-01  4.55540199e-01  1.51828383e-01
  5.29281513e-07  3.29667306e-09  8.68635623e-08 -7.70126957e-07  4.65123376e-02
 -1.43486172e-01 -2.85485191e-08 -2.88283362e-01  8.89325794e-01  1.76943496e-07
  1.60697099e-01  3.38701447e-08  4.78983016e-08  2.03150066e-01  1.70224392e-01
  4.64478450e-01  1.99717478e-01  1.47331936e-01 -4.55658745e-01 -9.31899275e-08
 -1.60597672e-01 -6.90538742e-02  1.53383204e-01 -4.66177839e-01  3.80782205e-03
 -1.60597528e-01 -6.90538125e-02  1.53383203e-01 -4.66177841e-01 -3.80800502e-03
 -1.43282839e-01 -6.16091653e-02  1.47667204e-01 -4.68375774e-01 -9.31896635e-08
  3.57583098e-08 -3.45351507e-07  4.67737237e-07  3.30419125e-01 -5.36139612e-01
 -6.34370160e-08  3.61834426e-01 -5.87114247e-01 -6.94685796e-08  1.62189281e-01
  2.77726608e-08  3.92755155e-08  3.82960631e-01  2.34705808e-01 -1.95434333e-01
 -6.12079279e-01  6.76752109e-02 -5.58322568e-01  5.84122386e-08  4.52683299e-02
  1.41775781e-01 -3.90399075e-01  3.71836759e-01 -2.11026340e-01  4.52682970e-02
  1.41775678e-01 -3.90399012e-01  3.71836847e-01  2.11026303e-01  1.04897491e-01
  3.28527591e-01  2.94650679e-01  4.93664548e-01  5.84121817e-08  0.00000000e+00
  0.00000000e+00  0.00000000e+00  7.88844399e-08 -2.59008304e-08  6.29779872e-01
  8.63845908e-08 -2.83633496e-08  6.89657775e-01 -1.60213650e-08 -2.75716594e-01
 -3.89912099e-01  5.98205816e-08  1.13372769e-08 -1.60995500e-08 -5.04219741e-08
 -4.19976601e-08 -6.28125249e-08 -5.79894584e-01 -1.63243165e-01 -5.11259461e-01
  3.10676069e-01  4.39350845e-01  1.81089950e-01  1.63243156e-01  5.11259433e-01
 -3.10676198e-01 -4.39350773e-01  1.81089908e-01  2.50429522e-08  7.84318131e-08
  7.03428595e-08  2.38474143e-08 -5.79894696e-01 -1.00890808e-08  1.05126335e-07
 -1.49087299e-07  5.36139749e-01  3.30419106e-01 -5.35664242e-08  5.87114668e-01
  3.61834599e-01 -5.86594972e-08 -3.80437453e-01  2.34512092e-08  3.31641663e-08
  2.49781153e-01 -1.44663421e-01  4.21641487e-02  1.32053687e-01 -5.73912487e-01
 -7.72831421e-02  4.93233628e-08 -1.06183405e-01 -3.32554893e-01 -2.91589012e-01
 -1.84656774e-02  4.94991646e-01 -1.06183433e-01 -3.32554980e-01 -2.91588959e-01
 -1.84656027e-02 -4.94991677e-01  1.70202760e-01  5.33056260e-01  4.78074804e-01
 -3.04258486e-01  4.93233621e-08  5.44356701e-07 -3.74511852e-06 -1.09709143e-06
 -2.35410630e-07 -1.10044625e-07  0.00000000e+00 -9.77540734e-08 -4.78959285e-08
  0.00000000e+00  5.78008683e-01 -3.95694018e-08  2.79806808e-08  3.33690638e-01
 -9.43892950e-01  8.93222204e-07  3.73742629e-07 -4.37715995e-01 -1.54748537e-01
  1.94630418e-08  9.94168480e-07  4.76563158e-07  2.18860109e-01  3.09506910e-01
 -2.68044924e-01  9.94168710e-07  4.76563476e-07  2.18860077e-01  3.09506932e-01
  2.68044924e-01  7.55836736e-07  2.35011075e-07 -4.58730373e-06 -4.64265479e-01
 -1.94631055e-08  0.00000000e+00 -1.35524984e-12  0.00000000e+00  0.00000000e+00
  0.00000000e+00 -2.22869891e-07  0.00000000e+00  0.00000000e+00 -9.03457894e-08
  2.42314603e-08  9.43876397e-01 -6.67439192e-01  1.39891167e-08 -3.95701431e-08
  0.00000000e+00  0.00000000e+00 -1.83502266e-08 -6.48692913e-09 -4.64265455e-01
  1.18978777e-07  1.20144362e-07 -3.79067900e-01  2.68048426e-01 -1.68333290e-07
 -1.18977924e-07 -1.20143952e-07  3.79067918e-01 -2.68048400e-01 -1.45858402e-07
  0.00000000e+00  0.00000000e+00  0.00000000e+00 -1.94630580e-08  4.64265382e-01
  3.24563947e-01 -2.16334620e+00 -9.34762909e-01 -1.55876753e-07  6.32855638e-07
  0.00000000e+00 -8.69506794e-08  3.64324864e-07  0.00000000e+00 -1.15274131e-06
  0.00000000e+00  1.43806497e-12 -6.45719407e-07  2.10439367e-06  6.51027383e-01
  2.47702512e-01 -2.71747009e-01  7.68648706e-01  0.00000000e+00  6.51026846e-01
  2.47702206e-01 -2.71761968e-01 -3.84319367e-01 -6.65665391e-01  6.51026846e-01
  2.47702206e-01 -2.71761968e-01 -3.84319367e-01  6.65665391e-01  6.51026908e-01
  2.47702239e-01  8.15270791e-01 -9.29832670e-06  0.00000000e+00  0.00000000e+00
  1.66717964e-12  0.00000000e+00 -2.92780476e-07 -5.48498149e-07  1.21984034e+00
 -1.35337465e-07 -2.53542760e-07  5.63870444e-01 -6.10051161e-07  8.04234295e-01
  1.13732858e+00  3.38197007e-08 -3.61618724e-07 -4.39785344e-07 -1.40096468e-07
  1.23305160e-07 -4.20541540e-07  6.35939236e-02 -1.04405336e+00 -3.32590173e-01
  3.28979731e-01  4.65235358e-01  8.69413219e-01  1.04405411e+00  3.32590411e-01
 -3.28979997e-01 -4.65235748e-01  8.69413795e-01 -3.06901090e-07 -9.77653542e-08
 -3.05371148e-07 -2.85913463e-08  6.35941780e-02  6.33689655e-08 -4.24589792e-07
 -1.18238619e-07  1.10223184e+00 -5.22585164e-01  2.95735591e-08  5.09505983e-01
 -2.41564782e-01  1.36704453e-08  2.07377327e-01  1.94976951e-08  2.75731166e-08
 -1.33365309e+00 -3.44490050e-01 -9.01598961e-01 -2.87210446e-01  3.41540831e-01
 -8.30768937e-01  1.54172115e-09 -1.26911851e-01 -4.04285925e-02  9.74525360e-02
  2.93086927e-02  9.79527309e-02 -1.26911800e-01 -4.04285764e-02  9.74525201e-02
  2.93086701e-02 -9.79526888e-02  1.15542314e+00  3.68067726e-01  1.14966099e+00
 -2.72574928e-02  1.54175333e-09 -8.33799808e-08  5.74192857e-07  1.55733185e-07
  5.22584947e-01  1.10223153e+00  6.21044701e-07  2.41564345e-01  5.09505613e-01
  2.87077280e-07  1.18837204e+00  4.09451371e-07  5.79036192e-07 -2.92061079e-03
  7.26686945e-01  9.06747650e-01  2.88850376e-01 -2.58456306e-01  8.65576396e-01
  3.23769073e-08 -7.27267860e-01 -2.31675836e-01  2.56405354e-01  3.81537115e-01
  5.61318341e-01 -7.27266796e-01 -2.31675497e-01  2.56405019e-01  3.81536641e-01
 -5.61317456e-01  5.47786298e-01  1.74500810e-01  5.45055311e-01  5.74564086e-02
  3.23770315e-08
Total SCF Density                          R   N=         595
  2.08297341e+00 -1.46028945e-01  4.14090947e-01 -1.29398210e-01  1.23192144e-01
  4.02865451e-02  1.33949331e-09 -3.16594298e-09 -7.67264911e-09  3.67328584e-01
 -5.87797095e-09  1.29722052e-08  2.61928335e-08  7.14329893e-09  3.67328598e-01
  0.00000000e+00  0.00000000e+00  0.00000000e+00  0.00000000e+00  0.00000000e+00
  3.67328576e-01  2.48708773e-09 -6.55041413e-09 -4.98460192e-09  1.65503142e-01
  2.68883804e-08  0.00000000e+00  7.45689047e-02 -9.34357781e-09  2.43067907e-08
  1.73016877e-08  2.68884784e-08  1.65503186e-01  0.00000000e+00  2.27795285e-08
  7.45689415e-02  0.00000000e+00  0.00000000e+00  0.00000000e+00  0.00000000e+00
  0.00000000e+00  1.65503111e-01  0.00000000e+00  0.00000000e+00  7.45688783e-02
  3.64780872e-10  3.03850101e-09  1.58967947e-09  1.10638321e-02  1.56462150e-02
  0.00000000e+00  4.98490843e-03  7.04954286e-03  0.00000000e+00  9.99683728e-04
  0.00000000e+00  0.00000000e+00  0.00000000e+00  0.00000000e+00  0.00000000e+00
  1.27754103e-02  0.00000000e+00  0.00000000e+00  5.75607313e-03  0.00000000e+00
  4.44319114e-04  0.00000000e+00  0.00000000e+00  0.00000000e+00  0.00000000e+00
  0.00000000e+00  1.80666786e-02  0.00000000e+00  0.00000000e+00  8.14010050e-03
  0.00000000e+00  6.28345428e-04  8.88591026e-04  1.90590657e-10  2.52868736e-09
  1.60503660e-09 -1.91626661e-02  9.03397243e-03  0.00000000e+00 -8.63390810e-03
  4.07033588e-03  0.00000000e+00 -1.92375573e-04  0.00000000e+00  0.00000000e+00
  1.22185001e-03 -7.68283236e-10 -9.10528262e-10  5.50000239e-10  6.25063912e-07
  1.27749664e-02  0.00000000e+00  2.82451267e-07  5.75587540e-03  0.00000000e+00
  5.44163411e-04  0.00000000e+00  0.00000000e+00  3.14151203e-04  4.44288212e-04
 -9.46041214e-02  1.68232577e-01  5.15418241e-02  1.12959465e-01 -3.19510118e-01
  0.00000000e+00  5.08948635e-02 -1.43958128e-01  0.00000000e+00 -1.02070979e-02
  0.00000000e+00  0.00000000e+00 -1.37507672e-02 -1.11117420e-02  3.81613853e-01
 -3.30038644e-03  2.83711642e-02  8.15673418e-03  4.46736478e-02 -1.26361176e-01
  0.00000000e+00  2.01280987e-02 -5.69331543e-02  0.00000000e+00 -4.03674610e-03
  0.00000000e+00  0.00000000e+00 -5.43820879e-03 -4.39451735e-03  1.35059387e-01
  5.08673580e-02  4.86911907e-03 -7.56565618e-03 -2.34391527e-03  6.93238168e-03
  8.40389924e-03  0.00000000e+00  3.12344652e-03  3.78645210e-03  0.00000000e+00
  5.66762034e-04  0.00000000e+00  0.00000000e+00 -1.54962989e-04  2.92282907e-04
 -8.28998767e-03 -2.55893583e-03  4.63712166e-04 -1.37724828e-02  2.13997340e-02
  6.62984986e-03  8.40389814e-03 -1.38672417e-02  0.00000000e+00  3.78644948e-03
 -6.24800833e-03  0.00000000e+00 -3.37546481e-04  0.00000000e+00  0.00000000e+00
 -7.79458365e-04 -4.82261172e-04  2.34485287e-02  7.23803984e-03 -5.56388638e-04
  1.84077215e-03  0.00000000e+00  0.00000000e+00  0.00000000e+00  0.00000000e+00
  0.00000000e+00  9.90349566e-03  0.00000000e+00  0.00000000e+00  4.46210682e-03
  0.00000000e+00  3.44436094e-04  4.87093259e-04  0.00000000e+00  0.00000000e+00
  0.00000000e+00  0.00000000e+00  0.00000000e+00  0.00000000e+00  2.67006796e-04
 -9.46041376e-02  1.68232610e-01  5.15418631e-02  1.12965358e-01  1.59752958e-01
  2.76702668e-01  5.08975496e-02  7.19781393e-02  1.24670814e-01  1.02070986e-02
  9.62350966e-03  1.36093364e-02 -1.96421779e-03  5.55608537e-03 -3.52574057e-02
 -2.98065751e-02  2.67490670e-03  5.35571698e-03  7.46014290e-03  3.81613844e-01
 -3.30038948e-03  2.83711720e-02  8.15674802e-03  4.46760006e-02  6.31797693e-02
  1.09431463e-01  2.01291709e-02  2.84662145e-02  4.93053052e-02  4.03674554e-03
  3.80594356e-03  5.38227406e-03 -7.76816591e-04  2.19734404e-03 -2.98065796e-02
 -1.43345128e-02  1.77750651e-03  8.26199921e-05  2.95036674e-03  1.35059357e-01
  5.08673365e-02  4.86937205e-03 -7.56604777e-03 -2.34403739e-03  6.93207437e-03
 -4.20211226e-03 -7.27833508e-03  3.12330724e-03 -1.89329917e-03 -3.27931770e-03
  2.98047588e-05 -2.53134993e-04 -3.57977433e-04 -4.64975542e-04 -1.46129387e-04
  2.67473017e-03  1.77747312e-03  1.75307971e-04 -8.05191447e-05 -1.96230200e-04
 -8.29041505e-03 -2.55906633e-03  4.63732513e-04  6.88615000e-03 -1.06997241e-02
 -3.31488088e-03 -4.20211188e-03  3.96096995e-03 -1.02928482e-02 -1.89329829e-03
  1.78464971e-03 -4.63753301e-03  4.21494599e-05 -3.57977480e-04 -5.06243162e-04
  3.16629163e-04  1.37747633e-04 -9.13858152e-03 -2.59643703e-03  2.10179025e-04
 -8.08159961e-04 -2.77504076e-04 -1.17241056e-02 -3.61896941e-03  2.78204866e-04
  6.60437513e-04  1.19272712e-02 -1.85326387e-02 -5.74159663e-03 -7.27833561e-03
 -1.02928499e-02 -7.92441029e-03 -3.27931892e-03 -4.63753689e-03 -3.57041255e-03
 -6.57641321e-04 -2.75605001e-04 -3.89753979e-04  1.26554163e-04 -3.57977401e-04
 -9.08146541e-04  1.40361335e-03 -2.84011766e-05 -7.52214434e-04 -2.13648946e-04
 -2.03069399e-02 -6.26830080e-03  4.81869678e-04  6.81448542e-04  1.44732115e-03
 -9.46041376e-02  1.68232610e-01  5.15418631e-02  1.12965358e-01  1.59752958e-01
 -2.76702668e-01  5.08975496e-02  7.19781393e-02 -1.24670814e-01  1.02070986e-02
 -9.62350966e-03 -1.36093364e-02 -1.96421779e-03  5.55608537e-03 -3.52574057e-02
 -2.98065751e-02  2.67490670e-03  5.35571698e-03 -7.46014290e-03 -3.52574327e-02
 -2.98065404e-02  2.67488884e-03  3.78276604e-03 -8.36828002e-03  3.81613844e-01
 -3.30038948e-03  2.83711720e-02  8.15674802e-03  4.46760006e-02  6.31797693e-02
 -1.09431463e-01  2.01291709e-02  2.84662145e-02 -4.93053052e-02  4.03674554e-03
 -3.80594356e-03 -5.38227406e-03 -7.76816591e-04  2.19734404e-03 -2.98065796e-02
 -1.43345128e-02  1.77750651e-03  8.26199921e-05 -2.95036674e-03 -2.98065404e-02
 -1.43344788e-02  1.77753531e-03  2.51374937e-03 -1.54675249e-03  1.35059357e-01