Generated by Psi4
        SP                           RHF             ANONYMOUS6EBB9B03
Number of atoms                            I                2
Charge                                     I                0
Multiplicity                               I                1
Number of electrons                        I                2
Number of alpha electrons                  I                1
Number of beta electrons                   I                1
Number of basis functions                  I                8
Number of independent functions            I                8
Atomic numbers                             I   N=           2
           1           1
Nuclear charges                            R   N=           2
  1.00000000e+00  1.00000000e+00
Current cartesian coordinates              R   N=           6
  0.00000000e+00  0.00000000e+00 -6.61404144e-01  0.00000000e+00  0.00000000e+00
  6.61404144e-01
Integer atomic weights                     I   N=           2
           1           1
Real atomic weights                        R   N=           2
  1.00782503e+00  1.00782503e+00
Number of primitive shells                 I                4
Number of contracted shells                I                4
Pure/Cartesian d shells                    I                1
Pure/Cartesian f shells                    I                1
Highest angular momentum                   I                1
Largest degree of contraction              I                1
Shell types                                I   N=           4
           0           1           0           1
Number of primitives per shell             I   N=           4
           1           1           1           1
Shell to atom map                          I   N=           4
           1           1           2           2
Primitive exponents                        R   N=           4
  1.00000000e+00  1.00000000e+00  1.00000000e+00  1.00000000e+00
Contraction coefficients                   R   N=           4
  1.00000000e+00  1.00000000e+00  1.00000000e+00  1.00000000e+00
Coordinates of each shell                  R   N=          12
  0.00000000e+00  0.00000000e+00 -6.61404144e-01  0.00000000e+00  0.00000000e+00
 -6.61404144e-01  0.00000000e+00  0.00000000e+00  6.61404144e-01  0.00000000e+00
  0.00000000e+00  6.61404144e-01
Total Energy                               R     -5.568608379027983e-01
Alpha Orbital Energies                     R   N=           8
 -1.79672575e-01  1.20635620e+00  1.99655171e+00  1.99655171e+00  2.70183045e+00
  2.92474891e+00  2.92474891e+00  3.88550227e+00
Alpha MO coefficients                      R   N=          64
  5.99077645e-01  0.00000000e+00  0.00000000e+00 -1.32373382e-02  5.99077645e-01
  0.00000000e+00  0.00000000e+00  1.32373382e-02  5.18851586e-01  0.00000000e+00
  0.00000000e+00 -4.03674839e-01 -5.18851586e-01  0.00000000e+00  0.00000000e+00
 -4.03674839e-01  0.00000000e+00  0.00000000e+00  5.94039781e-01  0.00000000e+00
  0.00000000e+00  0.00000000e+00  5.94039781e-01  0.00000000e+00  0.00000000e+00
  5.94039781e-01  0.00000000e+00  0.00000000e+00  0.00000000e+00  5.94039781e-01
  0.00000000e+00  0.00000000e+00  2.50949212e-01  0.00000000e+00  0.00000000e+00
 -6.74696987e-01  2.50949212e-01  0.00000000e+00  0.00000000e+00  6.74696987e-01
  0.00000000e+00  9.26004661e-01  0.00000000e+00  0.00000000e+00  0.00000000e+00
 -9.26004661e-01  0.00000000e+00  0.00000000e+00  0.00000000e+00  0.00000000e+00
  9.26004661e-01  0.00000000e+00  0.00000000e+00  0.00000000e+00 -9.26004661e-01
  0.00000000e+00  1.81252235e+00  0.00000000e+00  0.00000000e+00  1.68883851e+00
 -1.81252235e+00  0.00000000e+00  0.00000000e+00  1.68883851e+00
Total SCF Density                          R   N=          36
  7.17788050e-01  0.00000000e+00  0.00000000e+00  0.00000000e+00  0.00000000e+00
  0.00000000e+00 -1.58603868e-02  0.00000000e+00  0.00000000e+00  3.50454244e-04
  7.17788050e-01  0.00000000e+00  0.00000000e+00 -1.58603868e-02  7.17788050e-01
  0.00000000e+00  0.00000000e+00  0.00000000e+00  0.00000000e+00  0.00000000e+00
  0.00000000e+00  0.00000000e+00  0.00000000e+00  0.00000000e+00  0.00000000e+00
  0.00000000e+00  0.00000000e+00  0.00000000e+00  1.58603868e-02  0.00000000e+00
  0.00000000e+00 -3.50454244e-04  1.58603868e-02  0.00000000e+00  0.00000000e+00
  3.50454244e-04
