Generated by Psi4
        SP                           RHF             ANONYMOUS77B3C383
Number of atoms                            I                2
Charge                                     I                0
Multiplicity                               I                1
Number of electrons                        I                2
Number of alpha electrons                  I                1
Number of beta electrons                   I                1
Number of basis functions                  I                6
Number of independent functions            I                6
Atomic numbers                             I   N=           2
           1           1
Nuclear charges                            R   N=           2
  1.00000000e+00  1.00000000e+00
Current cartesian coordinates              R   N=           6
  0.00000000e+00  0.00000000e+00  0.00000000e+00  0.00000000e+00  0.00000000e+00
  1.32280829e+00
Integer atomic weights                     I   N=           2
           1           1
Real atomic weights                        R   N=           2
  1.00782503e+00  1.00782503e+00
Number of primitive shells                 I                2
Number of contracted shells                I                2
Pure/Cartesian d shells                    I                1
Pure/Cartesian f shells                    I                1
Highest angular momentum                   I                1
Largest degree of contraction              I                1
Shell types                                I   N=           2
           1           1
Number of primitives per shell             I   N=           2
           1           1
Shell to atom map                          I   N=           2
           1           2
Primitive exponents                        R   N=           2
  1.00000000e+00  1.00000000e+00
Contraction coefficients                   R   N=           2
  1.00000000e+00  1.00000000e+00
Coordinates of each shell                  R   N=           6
  0.00000000e+00  0.00000000e+00  0.00000000e+00  0.00000000e+00  0.00000000e+00
  1.32280829e+00
Total Energy                               R      1.784063023695054e+00
Alpha Orbital Energies                     R   N=           6
  9.09088767e-01  1.75177540e+00  1.75177540e+00  2.04886755e+00  2.75253847e+00
  2.75253847e+00
Alpha MO coefficients                      R   N=          36
  0.00000000e+00  0.00000000e+00  8.52864939e-01  0.00000000e+00  0.00000000e+00
  8.52864939e-01  5.93931691e-01  1.13317277e-02  0.00000000e+00  5.93931691e-01
  1.13317277e-02  0.00000000e+00  1.13317277e-02 -5.93931691e-01  0.00000000e+00
  1.13317277e-02 -5.93931691e-01  0.00000000e+00  0.00000000e+00  0.00000000e+00
  6.17189871e-01  0.00000000e+00  0.00000000e+00 -6.17189871e-01  9.25974704e-01
 -7.44848563e-03  0.00000000e+00 -9.25974704e-01  7.44848563e-03  0.00000000e+00
  7.44848563e-03  9.25974704e-01  0.00000000e+00 -7.44848563e-03 -9.25974704e-01
  0.00000000e+00
Total SCF Density                          R   N=          21
  0.00000000e+00  0.00000000e+00  0.00000000e+00  0.00000000e+00  0.00000000e+00
  1.45475721e+00  0.00000000e+00  0.00000000e+00  0.00000000e+00  0.00000000e+00
  0.00000000e+00  0.00000000e+00  0.00000000e+00  0.00000000e+00  0.00000000e+00
  0.00000000e+00  0.00000000e+00  1.45475721e+00  0.00000000e+00  0.00000000e+00
  1.45475721e+00
