Generated by Psi4
        SP                           RHF             ANONYMOUSE4560AF5
Number of atoms                            I                3
Charge                                     I                0
Multiplicity                               I                1
Number of electrons                        I                4
Number of alpha electrons                  I                2
Number of beta electrons                   I                2
Number of basis functions                  I                5
Number of independent functions            I                5
Atomic numbers                             I   N=           3
           2           1           1
Nuclear charges                            R   N=           3
  2.00000000e+00  1.00000000e+00  1.00000000e+00
Current cartesian coordinates              R   N=           9
  0.00000000e+00 -2.09404105e-01  0.00000000e+00  1.48149972e+00  8.37616400e-01
  0.00000000e+00 -1.48149972e+00  8.37616400e-01  0.00000000e+00
Integer atomic weights                     I   N=           3
           4           1           1
Real atomic weights                        R   N=           3
  4.00260325e+00  1.00782503e+00  1.00782503e+00
Number of primitive shells                 I                3
Number of contracted shells                I                3
Pure/Cartesian d shells                    I                1
Pure/Cartesian f shells                    I                1
Highest angular momentum                   I                1
Largest degree of contraction              I                1
Shell types                                I   N=           3
           1           0           0
Number of primitives per shell             I   N=           3
           1           1           1
Shell to atom map                          I   N=           3
           1           2           3
Primitive exponents                        R   N=           3
  1.00000000e+00  1.00000000e+00  1.00000000e+00
Contraction coefficients                   R   N=           3
  1.00000000e+00  1.00000000e+00  1.00000000e+00
Coordinates of each shell                  R   N=           9
  0.00000000e+00 -2.09404105e-01  0.00000000e+00  1.48149972e+00  8.37616400e-01
  0.00000000e+00 -1.48149972e+00  8.37616400e-01  0.00000000e+00
Total Energy                               R     -3.522673918078065e-01
Alpha Orbital Energies                     R   N=           5
  1.64409921e-01  1.92558314e-01  1.55296772e+00  1.74717406e+00  2.07518760e+00
Alpha MO coefficients                      R   N=          25
  0.00000000e+00  1.97082528e-01  0.00000000e+00  6.50780592e-01  6.50780592e-01
  3.19342991e-01  0.00000000e+00  0.00000000e+00  5.88168526e-01 -5.88168526e-01
  0.00000000e+00  0.00000000e+00  1.00000000e+00  0.00000000e+00  0.00000000e+00
  0.00000000e+00  1.02411563e+00  0.00000000e+00 -3.37117868e-01 -3.37117868e-01
  1.04699904e+00  0.00000000e+00  0.00000000e+00 -5.10564536e-01  5.10564536e-01
Total SCF Density                          R   N=          15
  2.03959892e-01  0.00000000e+00  7.76830456e-02  0.00000000e+00  0.00000000e+00
  0.00000000e+00  3.75654993e-01  2.56514968e-01  0.00000000e+00  1.53891519e+00
 -3.75654993e-01  2.56514968e-01  0.00000000e+00  1.55146329e-01  1.53891519e+00
