Generated by Psi4
        SP                           RHF                     DEF2-TZVP
Number of atoms                            I                2
Charge                                     I               -1
Multiplicity                               I                1
Number of electrons                        I               10
Number of alpha electrons                  I                5
Number of beta electrons                   I                5
Number of basis functions                  I               37
Number of independent functions            I               37
Atomic numbers                             I   N=           2
           8           1
Nuclear charges                            R   N=           2
  8.00000000e+00  1.00000000e+00
Current cartesian coordinates              R   N=           6
  0.00000000e+00  0.00000000e+00  0.00000000e+00  0.00000000e+00  0.00000000e+00
  1.51178090e+00
Integer atomic weights                     I   N=           2
          16           1
Real atomic weights                        R   N=           2
  1.59949146e+01  1.00782503e+00
Number of primitive shells                 I               26
Number of contracted shells                I               15
Pure/Cartesian d shells                    I                0
Pure/Cartesian f shells                    I                0
Highest angular momentum                   I                3
Largest degree of contraction              I                6
Shell types                                I   N=          15
           0           0           0           0           0           1
           1           1          -2          -2          -3           0
           0           0           1
Number of primitives per shell             I   N=          15
           6           2           1           1           1           4
           1           1           1           1           1           3
           1           1           1
Shell to atom map                          I   N=          15
           1           1           1           1           1           1
           1           1           1           1           1           2
           2           2           2
Primitive exponents                        R   N=          26
  2.70323826e+04  4.05238714e+03  9.22327227e+02  2.61240710e+02  8.53546414e+01
  3.10350352e+01  1.22608607e+01  4.99870760e+00  1.17031082e+00  4.64747410e-01
  1.85045364e-01  6.32749548e+01  1.46270494e+01  4.45012235e+00  1.52757996e+00
  5.29351179e-01  1.74784213e-01  2.31400000e+00  6.45000000e-01  1.42800000e+00
  3.40613410e+01  5.12357460e+00  1.16466260e+00  3.27230410e-01  1.03072410e-01
  8.00000000e-01
Contraction coefficients                   R   N=          26
  5.72273352e-04  4.43532335e-03  2.30201077e-02  9.28224907e-02  2.93785000e-01
  6.74016045e-01  6.38399370e-01  3.95345871e-01  1.00000000e+00  1.00000000e+00
  1.00000000e+00  1.20183322e-02  8.30054218e-02  3.19917439e-01  7.07155429e-01
  1.00000000e+00  1.00000000e+00  1.00000000e+00  1.00000000e+00  1.00000000e+00
  2.54393072e-02  1.90085949e-01  8.52441130e-01  1.00000000e+00  1.00000000e+00
  1.00000000e+00
Coordinates of each shell                  R   N=          45
  0.00000000e+00  0.00000000e+00  0.00000000e+00  0.00000000e+00  0.00000000e+00
  0.00000000e+00  0.00000000e+00  0.00000000e+00  0.00000000e+00  0.00000000e+00
  0.00000000e+00  0.00000000e+00  0.00000000e+00  0.00000000e+00  0.00000000e+00
  0.00000000e+00  0.00000000e+00  0.00000000e+00  0.00000000e+00  0.00000000e+00
  0.00000000e+00  0.00000000e+00  0.00000000e+00  0.00000000e+00  0.00000000e+00
  0.00000000e+00  0.00000000e+00  0.00000000e+00  0.00000000e+00  0.00000000e+00
  0.00000000e+00  0.00000000e+00  0.00000000e+00  0.00000000e+00  0.00000000e+00
  1.51178090e+00  0.00000000e+00  0.00000000e+00  1.51178090e+00  0.00000000e+00
  0.00000000e+00  1.51178090e+00  0.00000000e+00  0.00000000e+00  1.51178090e+00
Total Energy                               R     -7.536635797012968e+01
Alpha Orbital Energies                     R   N=          37
 -2.01012865e+01 -9.22667696e-01 -2.48430348e-01 -7.82073769e-02 -7.82073769e-02
  4.03146825e-01  8.74029008e-01  9.39749171e-01  9.39749171e-01  1.00281257e+00
  1.13034427e+00  1.93776800e+00  1.93776800e+00  2.11754740e+00  2.14420867e+00
  2.14420867e+00  2.78048419e+00  2.89634889e+00  2.89634889e+00  3.41309077e+00
  3.41309077e+00  3.49336266e+00  3.77508498e+00  4.76525520e+00  5.97902978e+00
  5.97902978e+00  6.02271015e+00  6.02271015e+00  6.44559671e+00  6.44559671e+00
  7.17104128e+00  7.17104128e+00  7.30386536e+00  7.30386536e+00  7.45079464e+00
  8.28522608e+00  4.50758433e+01
Alpha MO coefficients                      R   N=        1369
  4.35566396e-01  6.42387282e-01  2.16563165e-02 -7.36653606e-03  3.96577604e-03
  0.00000000e+00  0.00000000e+00  1.53661107e-03  0.00000000e+00  0.00000000e+00
 -6.60234371e-04  0.00000000e+00  0.00000000e+00  7.74175617e-04  1.75694911e-04
  0.00000000e+00  0.00000000e+00  0.00000000e+00  0.00000000e+00 -2.24529912e-05
  0.00000000e+00  0.00000000e+00  0.00000000e+00  0.00000000e+00  9.99721012e-05
  0.00000000e+00  0.00000000e+00  0.00000000e+00  0.00000000e+00  0.00000000e+00
  0.00000000e+00  1.23723201e-04 -1.35860084e-04 -1.22672465e-03  0.00000000e+00
  0.00000000e+00  3.42909234e-04  9.46280557e-02  2.29549771e-01 -3.31341137e-01
 -3.95059785e-01 -1.88886490e-01  0.00000000e+00  0.00000000e+00 -9.45523586e-02
  0.00000000e+00  0.00000000e+00 -5.61967495e-02  0.00000000e+00  0.00000000e+00
 -5.13966584e-03 -9.38468577e-03  0.00000000e+00  0.00000000e+00  0.00000000e+00
  0.00000000e+00 -5.93102181e-03  0.00000000e+00  0.00000000e+00  0.00000000e+00
  0.00000000e+00 -4.98483629e-03  0.00000000e+00  0.00000000e+00  0.00000000e+00
  0.00000000e+00  0.00000000e+00  0.00000000e+00 -1.49179321e-01 -1.16133102e-01
 -1.78446231e-02  0.00000000e+00  0.00000000e+00  3.11308137e-02  3.51310805e-02
  8.65586932e-02 -1.31156955e-01 -2.07639207e-01 -3.34078354e-01  0.00000000e+00
  0.00000000e+00  3.79572355e-01  0.00000000e+00  0.00000000e+00  2.66815121e-01
  0.00000000e+00  0.00000000e+00  1.87264777e-01  1.30990359e-02  0.00000000e+00
  0.00000000e+00  0.00000000e+00  0.00000000e+00  1.19773009e-02  0.00000000e+00
  0.00000000e+00  0.00000000e+00  0.00000000e+00  5.03853144e-03  0.00000000e+00
  0.00000000e+00  0.00000000e+00  0.00000000e+00  0.00000000e+00  0.00000000e+00
  1.71430930e-01  2.73560591e-01  7.65319330e-02  0.00000000e+00  0.00000000e+00
 -2.92499909e-02  0.00000000e+00  0.00000000e+00  0.00000000e+00  0.00000000e+00
  0.00000000e+00  3.81828904e-01 -2.11059451e-01  0.00000000e+00  3.17797994e-01
 -1.75665775e-01  0.00000000e+00  3.59165358e-01 -1.98531967e-01  0.00000000e+00
  0.00000000e+00  4.04803793e-03 -2.23759033e-03  0.00000000e+00  0.00000000e+00
  0.00000000e+00  1.82293618e-02 -1.00764480e-02  0.00000000e+00  0.00000000e+00
  0.00000000e+00  4.50120957e-03 -2.48808514e-03  0.00000000e+00  0.00000000e+00
  0.00000000e+00  0.00000000e+00  0.00000000e+00  0.00000000e+00  0.00000000e+00
  2.54179199e-02 -1.40499898e-02  0.00000000e+00  0.00000000e+00  0.00000000e+00
  0.00000000e+00  0.00000000e+00  0.00000000e+00  2.11059451e-01  3.81828904e-01
  0.00000000e+00  1.75665775e-01  3.17797994e-01  0.00000000e+00  1.98531967e-01
  3.59165358e-01  0.00000000e+00  0.00000000e+00  2.23759033e-03  4.04803793e-03
  0.00000000e+00  0.00000000e+00  0.00000000e+00  1.00764480e-02  1.82293618e-02
  0.00000000e+00  0.00000000e+00  0.00000000e+00  2.48808514e-03  4.50120957e-03
  0.00000000e+00  0.00000000e+00  0.00000000e+00  0.00000000e+00  0.00000000e+00
  0.00000000e+00  0.00000000e+00  1.40499898e-02  2.54179199e-02  0.00000000e+00
  1.93455794e-02  5.59050659e-02 -2.13416032e-01  5.79767948e-01 -1.63976938e+00
  0.00000000e+00  0.00000000e+00 -9.77963366e-02  0.00000000e+00  0.00000000e+00
  1.42921559e-01  0.00000000e+00  0.00000000e+00 -5.27380918e-01 -7.52012628e-04
  0.00000000e+00  0.00000000e+00  0.00000000e+00  0.00000000e+00  4.14247483e-02
  0.00000000e+00  0.00000000e+00  0.00000000e+00  0.00000000e+00  4.71599396e-03
  0.00000000e+00  0.00000000e+00  0.00000000e+00  0.00000000e+00  0.00000000e+00
  0.00000000e+00 -4.53776354e-02 -3.59099024e-01  2.23651149e+00  0.00000000e+00
  0.00000000e+00  1.20135525e-01  2.62938589e-02  5.57565437e-02  8.09421264e-02
 -1.03349675e+00 -8.97366293e-01  0.00000000e+00  0.00000000e+00  1.13426678e-01
  0.00000000e+00  0.00000000e+00  1.49627042e-02  0.00000000e+00  0.00000000e+00
 -1.97836273e+00  2.71778109e-02  0.00000000e+00  0.00000000e+00  0.00000000e+00
  0.00000000e+00 -1.86553302e-01  0.00000000e+00  0.00000000e+00  0.00000000e+00
  0.00000000e+00 -1.47728544e-02  0.00000000e+00  0.00000000e+00  0.00000000e+00
  0.00000000e+00  0.00000000e+00  0.00000000e+00  1.11028630e-01  2.20741586e+00
  2.15609381e-01  0.00000000e+00  0.00000000e+00 -2.10343188e-01  0.00000000e+00
  0.00000000e+00  0.00000000e+00  0.00000000e+00  0.00000000e+00  2.83177584e-01
 -2.99434600e-03  0.00000000e+00  7.97206199e-01 -8.42973218e-03  0.00000000e+00
 -1.24730409e+00  1.31891089e-02  0.00000000e+00  0.00000000e+00  6.83830361e-03
 -7.23088556e-05  0.00000000e+00  0.00000000e+00  0.00000000e+00 -3.60672479e-03
  3.81378419e-05  0.00000000e+00  0.00000000e+00  0.00000000e+00  7.46257507e-04
 -7.89099599e-06  0.00000000e+00  0.00000000e+00  0.00000000e+00  0.00000000e+00
  0.00000000e+00  0.00000000e+00  0.00000000e+00  2.87735504e-02 -3.04254187e-04
  0.00000000e+00  0.00000000e+00  0.00000000e+00  0.00000000e+00  0.00000000e+00
  0.00000000e+00  2.99434600e-03  2.83177584e-01  0.00000000e+00  8.42973218e-03
  7.97206199e-01  0.00000000e+00 -1.31891089e-02 -1.24730409e+00  0.00000000e+00
  0.00000000e+00  7.23088556e-05  6.83830361e-03  0.00000000e+00  0.00000000e+00
  0.00000000e+00 -3.81378419e-05 -3.60672479e-03  0.00000000e+00  0.00000000e+00
  0.00000000e+00  7.89099599e-06  7.46257507e-04  0.00000000e+00  0.00000000e+00
  0.00000000e+00  0.00000000e+00  0.00000000e+00  0.00000000e+00  0.00000000e+00
  3.04254187e-04  2.87735504e-02  0.00000000e+00  2.62154605e-02  5.03524386e-02
  5.07035508e-02 -6.73259431e-01  3.48131475e+00  0.00000000e+00  0.00000000e+00
  1.75686686e-01  0.00000000e+00  0.00000000e+00  1.06443027e+00  0.00000000e+00
  0.00000000e+00  1.00536660e+00 -2.06322448e-02  0.00000000e+00  0.00000000e+00
  0.00000000e+00  0.00000000e+00  2.59834663e-01  0.00000000e+00  0.00000000e+00
  0.00000000e+00  0.00000000e+00  3.17486179e-02  0.00000000e+00  0.00000000e+00
  0.00000000e+00  0.00000000e+00  0.00000000e+00  0.00000000e+00 -1.25794177e-01
 -2.94034034e+00 -5.56145413e-01  0.00000000e+00  0.00000000e+00  3.52094767e-01
  4.77301412e-02  9.71177596e-02  2.44629171e-01 -2.62507339e+00  2.80880269e+00
  0.00000000e+00  0.00000000e+00 -2.14111189e-01  0.00000000e+00  0.00000000e+00
 -9.81199141e-01  0.00000000e+00  0.00000000e+00  8.97944403e-01 -7.91246640e-03
  0.00000000e+00  0.00000000e+00  0.00000000e+00  0.00000000e+00 -1.34938395e-01
  0.00000000e+00  0.00000000e+00  0.00000000e+00  0.00000000e+00 -2.64954695e-02
  0.00000000e+00  0.00000000e+00  0.00000000e+00  0.00000000e+00  0.00000000e+00
  0.00000000e+00  9.92545023e-02  1.38609978e+00 -1.89857158e+00  0.00000000e+00
  0.00000000e+00 -2.31307438e-01  0.00000000e+00  0.00000000e+00  0.00000000e+00
  0.00000000e+00  0.00000000e+00 -6.47683111e-04  6.92960510e-02  0.00000000e+00
 -1.72972753e-03  1.85064710e-01  0.00000000e+00 -7.57765558e-04  8.10738459e-02
  0.00000000e+00  0.00000000e+00 -2.53475257e-05  2.71194880e-03  0.00000000e+00
  0.00000000e+00  0.00000000e+00  5.50548122e-03 -5.89035134e-01  0.00000000e+00
  0.00000000e+00  0.00000000e+00 -2.39500384e-04  2.56243069e-02  0.00000000e+00
  0.00000000e+00  0.00000000e+00  0.00000000e+00  0.00000000e+00  0.00000000e+00
  0.00000000e+00  5.37887507e-03 -5.75489456e-01  0.00000000e+00  0.00000000e+00
  0.00000000e+00  0.00000000e+00  0.00000000e+00  0.00000000e+00  6.92960510e-02
  6.47683111e-04  0.00000000e+00  1.85064710e-01  1.72972753e-03  0.00000000e+00
  8.10738459e-02  7.57765558e-04  0.00000000e+00  0.00000000e+00  2.71194880e-03
  2.53475257e-05  0.00000000e+00  0.00000000e+00  0.00000000e+00 -5.89035134e-01
 -5.50548122e-03  0.00000000e+00  0.00000000e+00  0.00000000e+00  2.56243069e-02
  2.39500384e-04  0.00000000e+00  0.00000000e+00  0.00000000e+00  0.00000000e+00
  0.00000000e+00  0.00000000e+00  0.00000000e+00 -5.75489456e-01 -5.37887507e-03
  0.00000000e+00  1.47830788e-02  4.66833738e-02 -4.44099445e-01  2.28233248e+00
  1.56025885e+00  0.00000000e+00  0.00000000e+00 -2.06331209e-01  0.00000000e+00
  0.00000000e+00  1.68882206e+00  0.00000000e+00  0.00000000e+00  1.15003587e+00
  1.07698658e-02  0.00000000e+00  0.00000000e+00  0.00000000e+00  0.00000000e+00
  1.33318471e+00  0.00000000e+00  0.00000000e+00  0.00000000e+00  0.00000000e+00
  1.09357812e-01  0.00000000e+00  0.00000000e+00  0.00000000e+00  0.00000000e+00
  0.00000000e+00  0.00000000e+00  2.22762098e-01 -4.62252849e+00  3.17963311e-01
  0.00000000e+00  0.00000000e+00  1.34311633e+00  0.00000000e+00  0.00000000e+00
  0.00000000e+00  0.00000000e+00  0.00000000e+00  0.00000000e+00  0.00000000e+00
  0.00000000e+00  0.00000000e+00  0.00000000e+00  0.00000000e+00  0.00000000e+00
  0.00000000e+00  0.00000000e+00  0.00000000e+00  0.00000000e+00  0.00000000e+00
  3.50137801e-04  2.24078272e-02  0.00000000e+00  0.00000000e+00  0.00000000e+00
 -1.57988714e-02 -1.01108300e+00  0.00000000e+00  0.00000000e+00  0.00000000e+00
 -1.90398018e-04 -1.21849337e-02  0.00000000e+00  0.00000000e+00  0.00000000e+00
  0.00000000e+00  0.00000000e+00  0.00000000e+00  0.00000000e+00  0.00000000e+00
  0.00000000e+00  0.00000000e+00  0.00000000e+00  0.00000000e+00  0.00000000e+00
  0.00000000e+00  0.00000000e+00  0.00000000e+00  0.00000000e+00  0.00000000e+00
  0.00000000e+00  0.00000000e+00  0.00000000e+00  0.00000000e+00  0.00000000e+00
  0.00000000e+00  0.00000000e+00  2.24078272e-02 -3.50137801e-04  0.00000000e+00
  0.00000000e+00  0.00000000e+00 -1.01108300e+00  1.57988714e-02  0.00000000e+00
  0.00000000e+00  0.00000000e+00 -1.21849337e-02  1.90398018e-04  0.00000000e+00
  0.00000000e+00  0.00000000e+00  0.00000000e+00  0.00000000e+00  0.00000000e+00
  0.00000000e+00  0.00000000e+00  7.89626163e-03  2.80673028e-02 -4.11554061e-01
  2.57409833e+00 -8.61687605e-01  0.00000000e+00  0.00000000e+00 -4.33989033e-01
  0.00000000e+00  0.00000000e+00  1.88380218e+00  0.00000000e+00  0.00000000e+00
 -5.27412458e-01  2.70577210e-02  0.00000000e+00  0.00000000e+00  0.00000000e+00
  0.00000000e+00 -3.60551826e-01  0.00000000e+00  0.00000000e+00  0.00000000e+00
  0.00000000e+00  8.46931554e-02  0.00000000e+00  0.00000000e+00  0.00000000e+00
  0.00000000e+00  0.00000000e+00  0.00000000e+00  1.34345968e-01 -1.94693886e+00
  7.48358763e-01  0.00000000e+00  0.00000000e+00  1.51060828e+00  0.00000000e+00
  0.00000000e+00  0.00000000e+00  0.00000000e+00  0.00000000e+00  1.31406547e-03
 -2.57713982e-01  0.00000000e+00  8.91402700e-04 -1.74821533e-01  0.00000000e+00
  1.45075132e-03 -2.84520756e-01  0.00000000e+00  0.00000000e+00 -1.52447903e-04
  2.98980203e-02  0.00000000e+00  0.00000000e+00  0.00000000e+00  6.07186965e-03
 -1.19081259e+00  0.00000000e+00  0.00000000e+00  0.00000000e+00  2.32929215e-04
 -4.56819824e-02  0.00000000e+00  0.00000000e+00  0.00000000e+00  0.00000000e+00
  0.00000000e+00  0.00000000e+00  0.00000000e+00 -6.96827948e-03  1.36661612e+00
  0.00000000e+00  0.00000000e+00  0.00000000e+00  0.00000000e+00  0.00000000e+00
  0.00000000e+00  2.57713982e-01  1.31406547e-03  0.00000000e+00  1.74821533e-01
  8.91402700e-04  0.00000000e+00  2.84520756e-01  1.45075132e-03  0.00000000e+00
  0.00000000e+00 -2.98980203e-02 -1.52447903e-04  0.00000000e+00  0.00000000e+00
  0.00000000e+00  1.19081259e+00  6.07186965e-03  0.00000000e+00  0.00000000e+00
  0.00000000e+00  4.56819824e-02  2.32929215e-04  0.00000000e+00  0.00000000e+00
  0.00000000e+00  0.00000000e+00  0.00000000e+00  0.00000000e+00  0.00000000e+00
 -1.36661612e+00 -6.96827948e-03  0.00000000e+00  0.00000000e+00  0.00000000e+00
  0.00000000e+00  0.00000000e+00  0.00000000e+00  8.94095625e-02 -1.19940369e+00
  0.00000000e+00 -1.26056990e-01  1.69101843e+00  0.00000000e+00  4.49746866e-02
 -6.03322549e-01  0.00000000e+00  0.00000000e+00  9.92921884e-04 -1.33197629e-02
  0.00000000e+00  0.00000000e+00  0.00000000e+00 -2.29717480e-02  3.08159425e-01
  0.00000000e+00  0.00000000e+00  0.00000000e+00  1.77481193e-04 -2.38085940e-03
  0.00000000e+00  0.00000000e+00  0.00000000e+00  0.00000000e+00  0.00000000e+00
  0.00000000e+00  0.00000000e+00  3.25995672e-02 -4.37313863e-01  0.00000000e+00
  0.00000000e+00  0.00000000e+00  0.00000000e+00  0.00000000e+00  0.00000000e+00
  1.19940369e+00  8.94095625e-02  0.00000000e+00 -1.69101843e+00 -1.26056990e-01
  0.00000000e+00  6.03322549e-01  4.49746866e-02  0.00000000e+00  0.00000000e+00
  1.33197629e-02  9.92921884e-04  0.00000000e+00  0.00000000e+00  0.00000000e+00
 -3.08159425e-01 -2.29717480e-02  0.00000000e+00  0.00000000e+00  0.00000000e+00
  2.38085940e-03  1.77481193e-04  0.00000000e+00  0.00000000e+00  0.00000000e+00
  0.00000000e+00  0.00000000e+00  0.00000000e+00  0.00000000e+00  4.37313863e-01
  3.25995672e-02  0.00000000e+00  9.66865907e-02  3.45008957e-01 -2.23782650e+00
  3.53800760e+00 -1.72641455e+00  0.00000000e+00  0.00000000e+00  7.88139705e-01
  0.00000000e+00  0.00000000e+00 -6.62468903e-01  0.00000000e+00  0.00000000e+00
  1.70480556e-01  5.43514366e-03  0.00000000e+00  0.00000000e+00  0.00000000e+00
  0.00000000e+00 -1.21205584e-01  0.00000000e+00  0.00000000e+00  0.00000000e+00
  0.00000000e+00  3.62493632e-02  0.00000000e+00  0.00000000e+00  0.00000000e+00
  0.00000000e+00  0.00000000e+00  0.00000000e+00  1.40176972e-01 -4.60236088e-01
  4.72472771e-01  0.00000000e+00  0.00000000e+00  4.13429546e-01  8.69149163e-02
  3.14651757e-01 -1.99715572e+00  1.81358049e+00 -2.10248168e+00  0.00000000e+00
  0.00000000e+00 -8.78330728e-01  0.00000000e+00  0.00000000e+00  3.37982585e-01
  0.00000000e+00  0.00000000e+00 -8.28895545e-01 -1.53347632e-02  0.00000000e+00
  0.00000000e+00  0.00000000e+00  0.00000000e+00 -1.13214849e-01  0.00000000e+00
  0.00000000e+00  0.00000000e+00  0.00000000e+00 -8.11979439e-02  0.00000000e+00
  0.00000000e+00  0.00000000e+00  0.00000000e+00  0.00000000e+00  0.00000000e+00
 -2.57407217e-02  1.24851249e+00  6.59492732e-01  0.00000000e+00  0.00000000e+00
 -1.04732435e+00  2.49554563e-03  3.55794281e-02 -9.11929638e-01  4.12295850e+00
  4.72530730e-02  0.00000000e+00  0.00000000e+00 -9.44948138e-03  0.00000000e+00
  0.00000000e+00  2.89003286e+00  0.00000000e+00  0.00000000e+00  1.83654281e-01
 -1.50762993e-01  0.00000000e+00  0.00000000e+00  0.00000000e+00  0.00000000e+00
  1.52632680e+00  0.00000000e+00  0.00000000e+00  0.00000000e+00  0.00000000e+00
 -2.81403183e-01  0.00000000e+00  0.00000000e+00  0.00000000e+00  0.00000000e+00
  0.00000000e+00  0.00000000e+00 -1.88197486e+00 -3.10795323e+00  4.76349281e-01
  0.00000000e+00  0.00000000e+00  2.01113106e+00  0.00000000e+00  0.00000000e+00
  0.00000000e+00  0.00000000e+00  0.00000000e+00  0.00000000e+00  0.00000000e+00
  0.00000000e+00  0.00000000e+00  0.00000000e+00  0.00000000e+00  0.00000000e+00
  0.00000000e+00  0.00000000e+00  0.00000000e+00  0.00000000e+00  0.00000000e+00
 -4.26260529e-04  2.07036446e-02  0.00000000e+00  0.00000000e+00  0.00000000e+00
  4.61894152e-04 -2.24343839e-02  0.00000000e+00  0.00000000e+00  0.00000000e+00
 -2.05796063e-02  9.99559717e-01  0.00000000e+00  0.00000000e+00  0.00000000e+00
  0.00000000e+00  0.00000000e+00  0.00000000e+00  0.00000000e+00  0.00000000e+00
  0.00000000e+00  0.00000000e+00  0.00000000e+00  0.00000000e+00  0.00000000e+00
  0.00000000e+00  0.00000000e+00  0.00000000e+00  0.00000000e+00  0.00000000e+00
  0.00000000e+00  0.00000000e+00  0.00000000e+00  0.00000000e+00  0.00000000e+00
  0.00000000e+00  0.00000000e+00  2.07036446e-02  4.26260529e-04  0.00000000e+00
  0.00000000e+00  0.00000000e+00 -2.24343839e-02 -4.61894152e-04  0.00000000e+00
  0.00000000e+00  0.00000000e+00  9.99559717e-01  2.05796063e-02  0.00000000e+00
  0.00000000e+00  0.00000000e+00  0.00000000e+00  0.00000000e+00  0.00000000e+00
  0.00000000e+00  0.00000000e+00  0.00000000e+00  0.00000000e+00  0.00000000e+00
  0.00000000e+00  0.00000000e+00  0.00000000e+00  0.00000000e+00  0.00000000e+00
  0.00000000e+00  0.00000000e+00  0.00000000e+00  0.00000000e+00  0.00000000e+00
  0.00000000e+00  0.00000000e+00  0.00000000e+00  0.00000000e+00  0.00000000e+00
  0.00000000e+00  0.00000000e+00  0.00000000e+00  0.00000000e+00  0.00000000e+00
  0.00000000e+00  0.00000000e+00  0.00000000e+00  0.00000000e+00  0.00000000e+00
  0.00000000e+00  9.99957906e-01 -9.17532856e-03  0.00000000e+00  0.00000000e+00
  0.00000000e+00  0.00000000e+00  0.00000000e+00  0.00000000e+00  0.00000000e+00
  0.00000000e+00  0.00000000e+00  0.00000000e+00  0.00000000e+00  0.00000000e+00
  0.00000000e+00  0.00000000e+00  0.00000000e+00  0.00000000e+00  0.00000000e+00
  0.00000000e+00  0.00000000e+00  0.00000000e+00  0.00000000e+00  0.00000000e+00
  0.00000000e+00  0.00000000e+00  0.00000000e+00  0.00000000e+00  0.00000000e+00
  0.00000000e+00  0.00000000e+00  0.00000000e+00  0.00000000e+00  0.00000000e+00
  0.00000000e+00  0.00000000e+00  0.00000000e+00  9.17532856e-03  9.99957906e-01
  0.00000000e+00  0.00000000e+00  0.00000000e+00  0.00000000e+00  0.00000000e+00
  0.00000000e+00  0.00000000e+00  0.00000000e+00  0.00000000e+00  0.00000000e+00
  0.00000000e+00  1.19587240e-04  6.57450733e-02  0.00000000e+00 -5.18504835e-04
 -2.85056654e-01  0.00000000e+00 -6.76320221e-05 -3.71818286e-02  0.00000000e+00
  0.00000000e+00 -6.25726643e-04 -3.44003625e-01  0.00000000e+00  0.00000000e+00
  0.00000000e+00 -3.30776766e-04 -1.81850027e-01  0.00000000e+00  0.00000000e+00
  0.00000000e+00 -1.90150571e-03 -1.04538438e+00  0.00000000e+00  0.00000000e+00
  0.00000000e+00  0.00000000e+00  0.00000000e+00  0.00000000e+00  0.00000000e+00
  1.08051496e-03  5.94031065e-01  0.00000000e+00  0.00000000e+00  0.00000000e+00
  0.00000000e+00  0.00000000e+00  0.00000000e+00  6.57450733e-02 -1.19587240e-04
  0.00000000e+00 -2.85056654e-01  5.18504835e-04  0.00000000e+00 -3.71818286e-02
  6.76320221e-05  0.00000000e+00  0.00000000e+00 -3.44003625e-01  6.25726643e-04
  0.00000000e+00  0.00000000e+00  0.00000000e+00 -1.81850027e-01  3.30776766e-04
  0.00000000e+00  0.00000000e+00  0.00000000e+00 -1.04538438e+00  1.90150571e-03
  0.00000000e+00  0.00000000e+00  0.00000000e+00  0.00000000e+00  0.00000000e+00
  0.00000000e+00  0.00000000e+00  5.94031065e-01 -1.08051496e-03  0.00000000e+00
  0.00000000e+00  0.00000000e+00  0.00000000e+00  0.00000000e+00  0.00000000e+00
  0.00000000e+00  0.00000000e+00  0.00000000e+00  0.00000000e+00  0.00000000e+00
  0.00000000e+00  0.00000000e+00  0.00000000e+00  0.00000000e+00  0.00000000e+00
  0.00000000e+00  0.00000000e+00  1.16313040e+00 -2.81911545e-02  0.00000000e+00
  0.00000000e+00  0.00000000e+00 -5.75640075e-01  1.39519682e-02  0.00000000e+00
  0.00000000e+00  0.00000000e+00 -1.75545255e-02  4.25474516e-04  0.00000000e+00
  0.00000000e+00  0.00000000e+00  0.00000000e+00  0.00000000e+00  0.00000000e+00
  0.00000000e+00  0.00000000e+00  0.00000000e+00  0.00000000e+00  0.00000000e+00
  0.00000000e+00  0.00000000e+00  0.00000000e+00  0.00000000e+00  0.00000000e+00
  0.00000000e+00  0.00000000e+00  0.00000000e+00  0.00000000e+00  0.00000000e+00
  0.00000000e+00  0.00000000e+00  0.00000000e+00  0.00000000e+00  2.81911545e-02
  1.16313040e+00  0.00000000e+00  0.00000000e+00  0.00000000e+00 -1.39519682e-02
 -5.75640075e-01  0.00000000e+00  0.00000000e+00  0.00000000e+00 -4.25474516e-04
 -1.75545255e-02  0.00000000e+00  0.00000000e+00  0.00000000e+00  0.00000000e+00
  0.00000000e+00  0.00000000e+00  0.00000000e+00  0.00000000e+00  0.00000000e+00
  0.00000000e+00  0.00000000e+00  0.00000000e+00  0.00000000e+00  1.10611190e-03
  2.96837499e-02  0.00000000e+00 -7.43553879e-03 -1.99540998e-01  0.00000000e+00
 -1.04408353e-03 -2.80191491e-02  0.00000000e+00  0.00000000e+00  4.20002498e-02
  1.12712367e+00  0.00000000e+00  0.00000000e+00  0.00000000e+00 -3.05878638e-02
 -8.20859529e-01  0.00000000e+00  0.00000000e+00  0.00000000e+00 -1.50686113e-02
 -4.04383034e-01  0.00000000e+00  0.00000000e+00  0.00000000e+00  0.00000000e+00
  0.00000000e+00  0.00000000e+00  0.00000000e+00  1.61302098e-02  4.32872217e-01
  0.00000000e+00  0.00000000e+00  0.00000000e+00  0.00000000e+00  0.00000000e+00
  0.00000000e+00  2.96837499e-02 -1.10611190e-03  0.00000000e+00 -1.99540998e-01
  7.43553879e-03  0.00000000e+00 -2.80191491e-02  1.04408353e-03  0.00000000e+00
  0.00000000e+00  1.12712367e+00 -4.20002498e-02  0.00000000e+00  0.00000000e+00
  0.00000000e+00 -8.20859529e-01  3.05878638e-02  0.00000000e+00  0.00000000e+00
  0.00000000e+00 -4.04383034e-01  1.50686113e-02  0.00000000e+00  0.00000000e+00
  0.00000000e+00  0.00000000e+00  0.00000000e+00  0.00000000e+00  0.00000000e+00
  4.32872217e-01 -1.61302098e-02  0.00000000e+00  6.00896283e-04  5.47337013e-03
 -6.47655540e-02 -1.12277314e-01  6.28428006e-01  0.00000000e+00  0.00000000e+00
 -8.48853476e-02  0.00000000e+00  0.00000000e+00  1.54360912e-01  0.00000000e+00
  0.00000000e+00  3.70666844e-01 -1.19075222e+00  0.00000000e+00  0.00000000e+00
  0.00000000e+00  0.00000000e+00  8.54937410e-01  0.00000000e+00  0.00000000e+00
  0.00000000e+00  0.00000000e+00  2.78762302e-01  0.00000000e+00  0.00000000e+00
  0.00000000e+00  0.00000000e+00  0.00000000e+00  0.00000000e+00 -2.01656730e-01
 -5.14673081e-01 -1.32112593e-01  0.00000000e+00  0.00000000e+00 -2.07662693e-01
  6.53366423e-03  4.37203229e-02 -1.06936650e+00  4.07131673e+00 -8.43717587e-02
  0.00000000e+00  0.00000000e+00 -1.67268937e-01  0.00000000e+00  0.00000000e+00
  3.06733811e+00  0.00000000e+00  0.00000000e+00  5.45520921e-02  1.79787343e-01
  0.00000000e+00  0.00000000e+00  0.00000000e+00  0.00000000e+00  1.57559611e+00
  0.00000000e+00  0.00000000e+00  0.00000000e+00  0.00000000e+00  1.24506607e+00
  0.00000000e+00  0.00000000e+00  0.00000000e+00  0.00000000e+00  0.00000000e+00
  0.00000000e+00 -2.64150135e+00 -2.45021214e+00  4.31437672e-01  0.00000000e+00
  0.00000000e+00  1.66602110e+00  1.38926059e+00 -1.68129350e+00  1.44030047e+00
 -1.40694820e+00  7.20177846e-01  0.00000000e+00  0.00000000e+00  2.43164901e-02
  0.00000000e+00  0.00000000e+00 -1.07551191e-01  0.00000000e+00  0.00000000e+00
  1.04204582e-01  4.42414835e-03  0.00000000e+00  0.00000000e+00  0.00000000e+00
  0.00000000e+00 -3.92001068e-02  0.00000000e+00  0.00000000e+00  0.00000000e+00
  0.00000000e+00 -2.00578052e-02  0.00000000e+00  0.00000000e+00  0.00000000e+00
  0.00000000e+00  0.00000000e+00  0.00000000e+00  6.19220760e-02  6.23532919e-02
 -2.51005702e-01  0.00000000e+00  0.00000000e+00 -3.04007824e-03
Total SCF Density                          R   N=         703
  3.99813494e-01  6.09130125e-01  9.45693851e-01 -5.30581787e-02 -1.47000629e-01
  2.54916184e-01 -9.57738892e-02 -2.26782062e-01  3.15946705e-01  3.98481080e-01
 -5.57662721e-02 -1.39457344e-01  2.12976896e-01  2.87920013e-01  2.94604360e-01
  0.00000000e+00  0.00000000e+00  0.00000000e+00  0.00000000e+00  0.00000000e+00
  3.80678808e-01  0.00000000e+00  0.00000000e+00  0.00000000e+00  0.00000000e+00
  0.00000000e+00  0.00000000e+00  3.80678808e-01  1.01135546e-02  2.42758284e-02
 -3.68423820e-02 -8.29431759e-02 -2.17882302e-01  0.00000000e+00  0.00000000e+00
  3.06035365e-01  0.00000000e+00  0.00000000e+00  0.00000000e+00  0.00000000e+00
  0.00000000e+00  3.16840764e-01  0.00000000e+00  0.00000000e+00  2.63708059e-01
  0.00000000e+00  0.00000000e+00  0.00000000e+00  0.00000000e+00  0.00000000e+00
  0.00000000e+00  3.16840764e-01  0.00000000e+00  0.00000000e+00  2.63708059e-01
  7.53627692e-03  1.95421821e-02 -3.27773244e-02 -6.63906815e-02 -1.57049936e-01
  0.00000000e+00  0.00000000e+00  2.13176329e-01  0.00000000e+00  0.00000000e+00
  1.48697639e-01  0.00000000e+00  0.00000000e+00  0.00000000e+00  0.00000000e+00
  0.00000000e+00  3.58083526e-01  0.00000000e+00  0.00000000e+00  2.98034604e-01
  0.00000000e+00  0.00000000e+00  3.36829392e-01  0.00000000e+00  0.00000000e+00
  0.00000000e+00  0.00000000e+00  0.00000000e+00  0.00000000e+00  3.58083526e-01
  0.00000000e+00  0.00000000e+00  2.98034604e-01  0.00000000e+00  0.00000000e+00
  3.36829392e-01  1.28593245e-02  3.10538117e-02 -4.56826589e-02 -7.37174751e-02
 -1.23174450e-01  0.00000000e+00  0.00000000e+00  1.43135379e-01  0.00000000e+00
  0.00000000e+00  1.00506791e-01  0.00000000e+00  0.00000000e+00  7.01902246e-02
 -7.02688965e-04 -1.81510573e-03  2.79061539e-03  1.97268850e-03 -5.20553449e-03
  0.00000000e+00  0.00000000e+00  1.17192921e-02  0.00000000e+00  0.00000000e+00
  8.04458738e-03  0.00000000e+00  0.00000000e+00  5.00271642e-03  5.19375875e-04
  0.00000000e+00  0.00000000e+00  0.00000000e+00  0.00000000e+00  0.00000000e+00
  4.03584494e-03  0.00000000e+00  0.00000000e+00  3.35905274e-03  0.00000000e+00
  0.00000000e+00  3.79629640e-03  0.00000000e+00  0.00000000e+00  0.00000000e+00
  4.27868431e-05  0.00000000e+00  0.00000000e+00  0.00000000e+00  0.00000000e+00
  0.00000000e+00  0.00000000e+00  4.03584494e-03  0.00000000e+00  0.00000000e+00
  3.35905274e-03  0.00000000e+00  0.00000000e+00  3.79629640e-03  0.00000000e+00
  0.00000000e+00  0.00000000e+00  4.27868431e-05  0.00000000e+00  0.00000000e+00
  0.00000000e+00  0.00000000e+00  0.00000000e+00  0.00000000e+00  0.00000000e+00
  0.00000000e+00  0.00000000e+00  0.00000000e+00  0.00000000e+00  0.00000000e+00
  0.00000000e+00  0.00000000e+00  0.00000000e+00  0.00000000e+00  0.00000000e+00
  0.00000000e+00  0.00000000e+00  0.00000000e+00  0.00000000e+00  0.00000000e+00
  0.00000000e+00  0.00000000e+00  0.00000000e+00  0.00000000e+00  0.00000000e+00