 Entering Gaussian System, Link 0=g16
 Input=00_h2co_cart.gjf
 Output=00_h2co_cart.log
 Initial command:
 /usr/remote/gaussian/g16/l1.exe "/tmp/Gau-12122.inp" -scrdir="/tmp/"
 Entering Link 1 = /usr/remote/gaussian/g16/l1.exe PID=     12123.
  
 Copyright (c) 1988-2017, Gaussian, Inc.  All Rights Reserved.
  
 This is part of the Gaussian(R) 16 program.  It is based on
 the Gaussian(R) 09 system (copyright 2009, Gaussian, Inc.),
 the Gaussian(R) 03 system (copyright 2003, Gaussian, Inc.),
 the Gaussian(R) 98 system (copyright 1998, Gaussian, Inc.),
 the Gaussian(R) 94 system (copyright 1995, Gaussian, Inc.),
 the Gaussian 92(TM) system (copyright 1992, Gaussian, Inc.),
 the Gaussian 90(TM) system (copyright 1990, Gaussian, Inc.),
 the Gaussian 88(TM) system (copyright 1988, Gaussian, Inc.),
 the Gaussian 86(TM) system (copyright 1986, Carnegie Mellon
 University), and the Gaussian 82(TM) system (copyright 1983,
 Carnegie Mellon University). Gaussian is a federally registered
 trademark of Gaussian, Inc.
  
 This software contains proprietary and confidential information,
 including trade secrets, belonging to Gaussian, Inc.
  
 This software is provided under written license and may be
 used, copied, transmitted, or stored only in accord with that
 written license.
  
 The following legend is applicable only to US Government
 contracts under FAR:
  
                    RESTRICTED RIGHTS LEGEND
  
 Use, reproduction and disclosure by the US Government is
 subject to restrictions as set forth in subparagraphs (a)
 and (c) of the Commercial Computer Software - Restricted
 Rights clause in FAR 52.227-19.
  
 Gaussian, Inc.
 340 Quinnipiac St., Bldg. 40, Wallingford CT 06492
  
  
 ---------------------------------------------------------------
 Warning -- This program may not be used in any manner that
 competes with the business of Gaussian, Inc. or will provide
 assistance to any competitor of Gaussian, Inc.  The licensee
 of this program is prohibited from giving any competitor of
 Gaussian, Inc. access to this program.  By using this program,
 the user acknowledges that Gaussian, Inc. is engaged in the
 business of creating and licensing software in the field of
 computational chemistry and represents and warrants to the
 licensee that it is not a competitor of Gaussian, Inc. and that
 it will not use this program in any manner prohibited above.
 ---------------------------------------------------------------
  

 Cite this work as:
 Gaussian 16, Revision B.01,
 M. J. Frisch, G. W. Trucks, H. B. Schlegel, G. E. Scuseria, 
 M. A. Robb, J. R. Cheeseman, G. Scalmani, V. Barone, 
 G. A. Petersson, H. Nakatsuji, X. Li, M. Caricato, A. V. Marenich, 
 J. Bloino, B. G. Janesko, R. Gomperts, B. Mennucci, H. P. Hratchian, 
 J. V. Ortiz, A. F. Izmaylov, J. L. Sonnenberg, D. Williams-Young, 
 F. Ding, F. Lipparini, F. Egidi, J. Goings, B. Peng, A. Petrone, 
 T. Henderson, D. Ranasinghe, V. G. Zakrzewski, J. Gao, N. Rega, 
 G. Zheng, W. Liang, M. Hada, M. Ehara, K. Toyota, R. Fukuda, 
 J. Hasegawa, M. Ishida, T. Nakajima, Y. Honda, O. Kitao, H. Nakai, 
 T. Vreven, K. Throssell, J. A. Montgomery, Jr., J. E. Peralta, 
 F. Ogliaro, M. J. Bearpark, J. J. Heyd, E. N. Brothers, K. N. Kudin, 
 V. N. Staroverov, T. A. Keith, R. Kobayashi, J. Normand, 
 K. Raghavachari, A. P. Rendell, J. C. Burant, S. S. Iyengar, 
 J. Tomasi, M. Cossi, J. M. Millam, M. Klene, C. Adamo, R. Cammi, 
 J. W. Ochterski, R. L. Martin, K. Morokuma, O. Farkas, 
 J. B. Foresman, and D. J. Fox, Gaussian, Inc., Wallingford CT, 2016.
 
 ******************************************
 Gaussian 16:  ES64L-G16RevB.01 20-Dec-2017
                31-Jan-2024 
 ******************************************
 %chk=00_h2co_cart.chk
 -----------------------------------------------------------
 # td(50-50,nstates=5) wB97XD/TZVP 6D 10F nosymm iop(9/40=2)
 -----------------------------------------------------------
 1/38=1,172=1/1;
 2/12=2,15=1,17=6,18=5,40=1/2;
 3/5=19,7=101,8=22,11=9,25=1,30=1,74=-58/1,2,3,8;
 4//1;
 5/5=2,38=5/2;
 8/6=1,10=1,108=5/1;
 9/40=2,41=5,42=1,48=2,70=2/14;
 6/7=2,8=2,9=2,10=2/1;
 99/5=1,9=1/99;
 ----------------------------
 formaldehyde for SO-coupling
 ----------------------------
 Symbolic Z-matrix:
 Charge =  0 Multiplicity = 1
 C                    -0.13183  0.        -0.00029 
 O                     1.06529   0.        0.00009 
 H                    -0.71844   0.93971   0.0001 
 H                    -0.71844  -0.93971   0.00014 
 
                          Input orientation:                          
 ---------------------------------------------------------------------
 Center     Atomic      Atomic             Coordinates (Angstroms)
 Number     Number       Type             X           Y           Z
 ---------------------------------------------------------------------
      1          6           0       -0.131829   -0.000001   -0.000286
      2          8           0        1.065288    0.000001    0.000090
      3          1           0       -0.718439    0.939705    0.000097
      4          1           0       -0.718441   -0.939705    0.000136
 ---------------------------------------------------------------------
                    Distance matrix (angstroms):
                    1          2          3          4
     1  C    0.000000
     2  O    1.197117   0.000000
     3  H    1.107772   2.016116   0.000000
     4  H    1.107771   2.016119   1.879410   0.000000
 Symmetry turned off by external request.
 Stoichiometry    CH2O
 Framework group  C1[X(CH2O)]
 Deg. of freedom     6
 Full point group                 C1      NOp   1
 Rotational constants (GHZ):         283.9349571          39.2953494          34.5181868
 Standard basis: TZVP (6D, 10F)
    52 basis functions,    86 primitive gaussians,    52 cartesian basis functions
     8 alpha electrons        8 beta electrons
       nuclear repulsion energy        31.4315454123 Hartrees.
 NAtoms=    4 NActive=    4 NUniq=    4 SFac= 1.00D+00 NAtFMM=   60 NAOKFM=F Big=F
 Integral buffers will be    131072 words long.
 Raffenetti 1 integral format.
 Two-electron integral symmetry is turned off.
 Nuclear repulsion after empirical dispersion term =       31.4313595013 Hartrees.
 One-electron integrals computed using PRISM.
 NBasis=    52 RedAO= T EigKep=  2.98D-03  NBF=    52
 NBsUse=    52 1.00D-06 EigRej= -1.00D+00 NBFU=    52
 ExpMin= 9.52D-02 ExpMax= 2.70D+04 ExpMxC= 9.22D+02 IAcc=3 IRadAn=         5 AccDes= 0.00D+00
 Harris functional with IExCor= 4639 and IRadAn=       5 diagonalized for initial guess.
 HarFok:  IExCor= 4639 AccDes= 0.00D+00 IRadAn=         5 IDoV= 1 UseB2=F ITyADJ=14
 ICtDFT=  3500011 ScaDFX=  1.000000  1.000000  1.000000  1.000000
 FoFCou: FMM=F IPFlag=           0 FMFlag=      100000 FMFlg1=           0
         NFxFlg=           0 DoJE=T BraDBF=F KetDBF=T FulRan=T
         wScrn=  0.000000 ICntrl=       500 IOpCl=  0 I1Cent=   200000004 NGrid=           0
         NMat0=    1 NMatS0=      1 NMatT0=    0 NMatD0=    1 NMtDS0=    0 NMtDT0=    0
 Symmetry not used in FoFCou.
 Keep R1 ints in memory in canonical form, NReq=2777399.
 Requested convergence on RMS density matrix=1.00D-08 within 128 cycles.
 Requested convergence on MAX density matrix=1.00D-06.
 Requested convergence on             energy=1.00D-06.
 No special actions if energy rises.
 Integral accuracy reduced to 1.0D-05 until final iterations.
 Initial convergence to 1.0D-05 achieved.  Increase integral accuracy.
 SCF Done:  E(RwB97XD) =  -114.507422113     A.U. after   13 cycles
            NFock= 13  Conv=0.84D-08     -V/T= 2.0044
 DoSCS=F DFT=T ScalE2(SS,OS)=  1.000000  1.000000
 ExpMin= 9.52D-02 ExpMax= 2.70D+04 ExpMxC= 9.22D+02 IAcc=3 IRadAn=         5 AccDes= 0.00D+00
 HarFok:  IExCor=  205 AccDes= 0.00D+00 IRadAn=         5 IDoV=-2 UseB2=F ITyADJ=14
 ICtDFT= 12500011 ScaDFX=  1.000000  1.000000  1.000000  1.000000
 Range of M.O.s used for correlation:     3    52
 NBasis=    52 NAE=     8 NBE=     8 NFC=     2 NFV=     0
 NROrb=     50 NOA=     6 NOB=     6 NVA=    44 NVB=    44
 Keep R1, R2, and R3 ints in memory in canonical form, NReq=7625882.
    40 initial guesses have been made.
 Convergence on wavefunction:    0.001000000000000
 Iteration     1 Dimension    40 NMult     0 NNew     40
 CISAX will form    40 AO SS matrices at one time.
 New state      1 was old state      2
 New state      2 was old state      1
 New state      3 was old state      6
 New state      5 was old state     12
 New state      6 was old state      3
 New state      7 was old state      8
 New state      8 was old state     11
 New state      9 was old state      7
 New state     10 was old state     14
 New state     11 was old state     10
 New state     12 was old state      9
 New state     14 was old state      5
 New state     15 was old state     16
 New state     16 was old state     15
 New state     17 was old state     19
 New state     19 was old state     20
 New state     20 was old state     17
 Iteration     2 Dimension    60 NMult    40 NNew     20
 New state      7 was old state      8
 New state      8 was old state      7
 New state     10 was old state     12
 Iteration     3 Dimension    80 NMult    60 NNew     20
 Iteration     4 Dimension   100 NMult    80 NNew     20
 Iteration     5 Dimension   104 NMult   100 NNew      4
 Iteration     6 Dimension   106 NMult   104 NNew      2
 ***********************************************************************
 Excited states from <AA,BB:AA,BB> singles matrix:
 ***********************************************************************
 
 Ground to excited state transition densities written to RWF  633
 Ground to excited state transition electric dipole moments (Au):
       state          X           Y           Z        Dip. S.      Osc.
         1         0.0000      0.0000      0.0000      0.0000      0.0000
         2        -0.0000      0.0003      0.0000      0.0000      0.0000
         3         0.0000     -0.0000      0.0000      0.0000      0.0000
         4         0.0000     -0.0000      0.0000      0.0000      0.0000
         5         0.0000      0.0000     -0.0000      0.0000      0.0000
         6         0.0000     -0.7306      0.0000      0.5338      0.1108
         7        -0.0007      0.0000      0.0552      0.0031      0.0007
         8        -0.0000     -0.0000      0.0000      0.0000      0.0000
         9        -0.0000      0.4520     -0.0000      0.2043      0.0479
        10         0.3353      0.0000      0.0007      0.1124      0.0267
 Ground to excited state transition velocity dipole moments (Au):
       state          X           Y           Z        Dip. S.      Osc.
         1        -0.0000     -0.0000      0.0000      0.0000      0.0000
         2         0.0000     -0.0000     -0.0000      0.0000      0.0000
         3         0.0000      0.0000     -0.0000      0.0000      0.0000
         4         0.0000     -0.0000     -0.0000      0.0000      0.0000
         5        -0.0000     -0.0000      0.0000      0.0000      0.0000
         6        -0.0000      0.2182     -0.0000      0.0476      0.1019
         7         0.0002     -0.0000     -0.0364      0.0013      0.0026
         8         0.0000      0.0000     -0.0000      0.0000      0.0000
         9         0.0000     -0.1649      0.0000      0.0272      0.0515
        10        -0.1080     -0.0000     -0.0003      0.0117      0.0218
 Ground to excited state transition magnetic dipole moments (Au):
       state          X           Y           Z
         1        -0.0000      0.0000     -0.0000
         2        -1.2317     -0.0000     -0.0002
         3         0.0000     -0.0000     -0.0000
         4         0.0000     -0.0000     -0.0000
         5         0.0000      0.0000     -0.0000
         6        -0.0000     -0.0000     -0.7568
         7        -0.0000      1.5970     -0.0000
         8        -0.0000      0.0000      0.0000
         9         0.0004     -0.0000     -1.0603
        10         0.0000      0.0018     -0.0000
 Ground to excited state transition velocity quadrupole moments (Au):
       state          XX          YY          ZZ          XY          XZ          YZ
         1        -0.0000     -0.0000     -0.0000      0.0000      0.0000     -0.0000
         2        -0.0000     -0.0000      0.0000      0.0001      0.0000     -0.0985
         3         0.0000      0.0000      0.0000     -0.0000     -0.0000     -0.0000
         4         0.0000     -0.0000      0.0000     -0.0000      0.0000     -0.0000
         5        -0.0000      0.0000      0.0000      0.0000     -0.0000      0.0000
         6         0.0000      0.0000     -0.0000     -0.6252      0.0000      0.0000
         7         0.0008      0.0002     -0.0004     -0.0000     -0.3600      0.0000
         8         0.0000      0.0000     -0.0000     -0.0000     -0.0000      0.0000
         9         0.0000      0.0000     -0.0000      0.0311     -0.0000      0.0001
        10        -0.6208     -0.2692      0.2027      0.0000     -0.0004      0.0000
 <0|del|b> * <b|rxdel|0> + <0|del|b> * <b|delr+rdel|0>
 Rotatory Strengths (R) in cgs (10**-40 erg-esu-cm/Gauss)
       state          XX          YY          ZZ    R(velocity)    E-M Angle
         1        -0.0000      0.0000     -0.0000     -0.0000       90.00
         2         0.0000     -0.0000     -0.0000     -0.0000       90.00
         3        -0.0000     -0.0000     -0.0000     -0.0000       90.00
         4         0.0000      0.0000      0.0000      0.0000       90.00
         5        -0.0000     -0.0000     -0.0000     -0.0000       90.00
         6        -0.0000      0.0007     -0.0007     -0.0000       90.00
         7         0.0000      0.0010     -0.0010      0.0000       90.00
         8         0.0000     -0.0000      0.0000      0.0000       90.00
         9         0.0000     -0.0038      0.0038      0.0000       90.00
        10        -0.0000     -0.0010      0.0010     -0.0000       90.00
 1/2[<0|r|b>*<b|rxdel|0> + (<0|rxdel|b>*<b|r|0>)*]
 Rotatory Strengths (R) in cgs (10**-40 erg-esu-cm/Gauss)
       state          XX          YY          ZZ     R(length)
         1         0.0000     -0.0000      0.0000     -0.0000
         2        -0.0000      0.0000      0.0000     -0.0000
         3        -0.0000     -0.0000      0.0000     -0.0000
         4        -0.0000     -0.0000      0.0000      0.0000
         5        -0.0000     -0.0000     -0.0000     -0.0000
         6         0.0000     -0.0081      0.0081     -0.0000
         7        -0.0000     -0.0013      0.0013      0.0000
         8        -0.0000      0.0000     -0.0000      0.0000
         9         0.0000      0.0070     -0.0070      0.0000
        10        -0.0000     -0.0000      0.0000     -0.0000
  1/2[<0|del|b>*<b|r|0> + (<0|r|b>*<b|del|0>)*] (Au)
       state          X           Y           Z        Dip. S.   Osc.(frdel)
         1        -0.0000     -0.0000      0.0000      0.0000      0.0000
         2        -0.0000     -0.0000     -0.0000      0.0000      0.0000
         3         0.0000     -0.0000     -0.0000      0.0000      0.0000
         4         0.0000      0.0000     -0.0000     -0.0000     -0.0000
         5        -0.0000     -0.0000     -0.0000      0.0000      0.0000
         6        -0.0000     -0.1594     -0.0000      0.1594      0.1063
         7        -0.0000     -0.0000     -0.0020      0.0020      0.0013
         8        -0.0000     -0.0000     -0.0000      0.0000      0.0000
         9        -0.0000     -0.0745     -0.0000      0.0745      0.0497
        10        -0.0362     -0.0000     -0.0000      0.0362      0.0241

 Excitation energies and oscillator strengths:
 
 Excited state symmetry could not be determined.
 Excited State   1:      Triplet-?Sym    3.3513 eV  369.96 nm  f=0.0000  <S**2>=2.000
       5 ->  9         0.02998
       5 -> 19         0.01316
       8 ->  9         0.70497
       8 -> 14        -0.04692
       8 -> 19         0.03856
       7 <- 15         0.01366
       8 <-  9         0.03752
 This state for optimization and/or second-order correction.
 Total Energy, E(TD-HF/TD-DFT) =  -114.384263692    
 Copying the excited state density for this state as the 1-particle RhoCI density.
 
 Excited state symmetry could not be determined.
 Excited State   2:      Singlet-?Sym    4.0274 eV  307.85 nm  f=0.0000  <S**2>=0.000
       5 ->  9         0.02758
       8 ->  9         0.70541
       8 -> 14        -0.04269
       8 -> 19         0.02490
       8 <-  9        -0.02682
 
 Excited state symmetry could not be determined.
 Excited State   3:      Triplet-?Sym    5.6712 eV  218.62 nm  f=0.0000  <S**2>=2.000
       3 -> 11        -0.01096
       3 -> 20         0.01435
       4 -> 10         0.01983
       4 -> 16        -0.01098
       4 -> 17        -0.01075
       5 -> 12        -0.01484
       5 -> 18         0.01125
       6 -> 20        -0.01235
       7 ->  9         0.70946
       7 -> 14        -0.08548
       7 -> 19         0.05944
       7 -> 27        -0.01197
       8 -> 15         0.01177
       4 <- 10         0.01032
       7 <-  9         0.11888
       7 <- 14        -0.02746
       7 <- 19         0.02780
 
 Excited state symmetry could not be determined.
 Excited State   4:      Triplet-?Sym    8.0748 eV  153.54 nm  f=0.0000  <S**2>=2.000
       4 -> 12         0.03353
       4 -> 18        -0.01249
       5 -> 10        -0.07224
       5 -> 11         0.01192
       5 -> 16         0.01869
       5 -> 17         0.01443
       5 -> 20         0.01028
       6 -> 12         0.01837
       8 -> 10         0.69783
       8 -> 11         0.03125
       8 -> 13         0.01125
       8 -> 16        -0.05863
       8 -> 17        -0.03329
       8 <- 10         0.01154
 
 Excited state symmetry could not be determined.
 Excited State   5:      Triplet-?Sym    8.1313 eV  152.48 nm  f=0.0000  <S**2>=2.000
       4 ->  9        -0.01719
       4 -> 19        -0.01013
       6 ->  9         0.70318
       6 -> 14        -0.06066
       6 -> 19         0.04358
       7 -> 20        -0.01654
       6 <-  9         0.02437
       7 <- 20        -0.02036
 
 Excited state symmetry could not be determined.
 Excited State   6:      Singlet-?Sym    8.4725 eV  146.34 nm  f=0.1108  <S**2>=0.000
       4 -> 12         0.01587
       4 -> 18         0.01335
       5 -> 10        -0.01752
       5 -> 11         0.01909
       5 -> 13         0.01241
       5 -> 16        -0.01512
       8 -> 10         0.69437
       8 -> 11         0.12121
       8 -> 13        -0.03751
       8 -> 16        -0.01429
       8 -> 22        -0.01032
 
 Excited state symmetry could not be determined.
 Excited State   7:      Singlet-?Sym    9.2792 eV  133.61 nm  f=0.0007  <S**2>=0.000
       3 ->  9        -0.03744
       4 ->  9         0.01642
       6 ->  9         0.70439
       6 -> 14        -0.04352
       6 -> 19         0.02700
       7 -> 16         0.01037
       6 <-  9        -0.02164
       7 <- 20        -0.01310
 
 Excited state symmetry could not be determined.
 Excited State   8:      Triplet-?Sym    9.3177 eV  133.06 nm  f=0.0000  <S**2>=2.000
       4 -> 15         0.01597
       5 -> 10         0.02235
       5 -> 13        -0.01573
       5 -> 17        -0.01142
       5 -> 22        -0.01237
       8 -> 10        -0.02590
       8 -> 11         0.70180
       8 -> 13        -0.03276
       8 -> 16         0.02701
       8 -> 20        -0.04845
       8 -> 22        -0.03288
 
 Excited state symmetry could not be determined.
 Excited State   9:      Singlet-?Sym    9.5755 eV  129.48 nm  f=0.0479  <S**2>=0.000
       5 -> 10         0.01374
       5 -> 13        -0.02214
       5 -> 16         0.01249
       8 -> 10        -0.12087
       8 -> 11         0.69518
       8 -> 20        -0.02368
       8 -> 22        -0.02124
 
 Excited state symmetry could not be determined.
 Excited State  10:      Singlet-?Sym    9.7035 eV  127.77 nm  f=0.0267  <S**2>=0.000
       3 -> 11         0.01241
       3 -> 20        -0.01774
       4 -> 10        -0.03644
       4 -> 11        -0.01236
       4 -> 13         0.01475
       4 -> 16         0.01494
       4 -> 17         0.01373
       5 -> 12         0.05113
       5 -> 18        -0.02750
       5 -> 21         0.01741
       6 -> 11        -0.02958
       6 -> 20         0.05611
       6 -> 25        -0.01303
       7 ->  9         0.58720
       7 -> 14         0.01898
       7 -> 19        -0.01005
       8 -> 12         0.37381
       8 -> 15        -0.07063
       8 -> 18        -0.06209
       8 -> 21         0.02863
       8 -> 26         0.01198
       3 <- 20        -0.01180
       4 <- 10        -0.01360
       5 <- 12         0.01597
       5 <- 18        -0.01084
       6 <- 20         0.02387
       7 <-  9        -0.05516
       7 <- 14         0.01667
       7 <- 19        -0.01260
       8 <- 15        -0.01619
       8 <- 18        -0.01054
 SavETr:  write IOETrn=   770 NScale= 10 NData=  16 NLR=1 NState=   10 LETran=     190.

 **********************************************************************

            Population analysis using the SCF Density.

 **********************************************************************

 Alpha  occ. eigenvalues --  -19.27187 -10.38967  -1.17385  -0.73374  -0.59272
 Alpha  occ. eigenvalues --   -0.54692  -0.49554  -0.35837
 Alpha virt. eigenvalues --    0.02451   0.13461   0.19144   0.19548   0.28631
 Alpha virt. eigenvalues --    0.29335   0.34807   0.49090   0.51943   0.52298
 Alpha virt. eigenvalues --    0.59994   0.61104   0.70492   0.76777   1.24041
 Alpha virt. eigenvalues --    1.24303   1.34643   1.36965   1.39985   1.57176
 Alpha virt. eigenvalues --    1.72451   1.77206   1.80525   2.02368   2.15794
 Alpha virt. eigenvalues --    2.16338   2.29733   2.47542   2.50933   2.53366
 Alpha virt. eigenvalues --    2.70226   2.71484   2.76067   2.77891   2.91990
 Alpha virt. eigenvalues --    3.07141   3.22360   3.27848   3.60990   4.20425
 Alpha virt. eigenvalues --    4.61670   6.98824  28.28364  50.82651
          Condensed to atoms (all electrons):
               1          2          3          4
     1  C    4.622502   0.530152   0.362494   0.362493
     2  O    0.530152   7.884498  -0.068196  -0.068196
     3  H    0.362494  -0.068196   0.742035  -0.114282
     4  H    0.362493  -0.068196  -0.114282   0.742036
 Mulliken charges:
               1
     1  C    0.122359
     2  O   -0.278258
     3  H    0.077949
     4  H    0.077949
 Sum of Mulliken charges =  -0.00000
 Mulliken charges with hydrogens summed into heavy atoms:
               1
     1  C    0.278258
     2  O   -0.278258
 Electronic spatial extent (au):  <R**2>=             70.4496
 Charge=             -0.0000 electrons
 Dipole moment (field-independent basis, Debye):
    X=             -2.4217    Y=             -0.0000    Z=             -0.0003  Tot=              2.4217
 Quadrupole moment (field-independent basis, Debye-Ang):
   XX=            -14.1344   YY=            -11.5213   ZZ=            -11.5524
   XY=              0.0000   XZ=             -0.0004   YZ=             -0.0000
 Traceless Quadrupole moment (field-independent basis, Debye-Ang):
   XX=             -1.7317   YY=              0.8814   ZZ=              0.8503
   XY=              0.0000   XZ=             -0.0004   YZ=             -0.0000
 Octapole moment (field-independent basis, Debye-Ang**2):
  XXX=            -15.0351  YYY=             -0.0000  ZZZ=              0.0022  XYY=             -4.9628
  XXY=             -0.0000  XXZ=              0.0009  XZZ=             -3.8408  YZZ=             -0.0000
  YYZ=              0.0012  XYZ=              0.0000
 Hexadecapole moment (field-independent basis, Debye-Ang**3):
 XXXX=            -56.4175 YYYY=            -18.3262 ZZZZ=             -9.9878 XXXY=             -0.0000
 XXXZ=             -0.0021 YYYX=             -0.0000 YYYZ=              0.0001 ZZZX=             -0.0016
 ZZZY=              0.0001 XXYY=            -12.3881 XXZZ=            -10.4366 YYZZ=             -5.0024
 XXYZ=              0.0000 YYXZ=             -0.0010 ZZXY=             -0.0000
 N-N= 3.143135950128D+01 E-N=-3.318226832554D+02  KE= 1.140070792371D+02

 Test job not archived.
 1\1\GINC-BURU\SP\RwB97XD TD-FC\TZVP\C1H2O1\JOHANNES\31-Jan-2024\0\\# t
 d(50-50,nstates=5) wB97XD/TZVP 6D 10F nosymm iop(9/40=2)\\formaldehyde
  for SO-coupling\\0,1\C,0,-0.131829,-0.000001,-0.000286\O,0,1.065288,0
 .000001,0.00009\H,0,-0.718439,0.939705,0.000097\H,0,-0.718441,-0.93970
 5,0.000136\\Version=ES64L-G16RevB.01\HF=-114.5074221\RMSD=8.414e-09\PG
 =C01 [X(C1H2O1)]\\@


 FROM AN ANONYMOUS WRITER, ON PERSPECTIVE:

 MAN, DESPITE HIS ARTISTIC PRETENSIONS, HIS SOPHISTICATION AND MANY 
 ACCOMPLISHMENTS, OWES THE FACT OF HIS EXISTENCE TO A SIX-INCH LAYER OF 
 TOPSOIL AND THE FACT THAT IT RAINS.
 Job cpu time:       0 days  0 hours  0 minutes 19.0 seconds.
 Elapsed time:       0 days  0 hours  0 minutes 19.0 seconds.
 File lengths (MBytes):  RWF=     53 Int=      0 D2E=      0 Chk=      2 Scr=      1
 Normal termination of Gaussian 16 at Wed Jan 31 15:46:56 2024.
