formaldehyde for SO-coupling                                            
SP        RwB97XD TD-FC                                               TZVP                
Number of atoms                            I                4
Info1-9                                    I   N=           9
          11          11           0           0           0         111
           1         218       -5801
Full Title                                 C   N=           3
formaldehyde for SO-coupling        
Route                                      C   N=           5
# td(50-50,nstates=5) wB97XD/TZVP 6D 10F nosymm iop(9/40=2) 
Charge                                     I                0
Multiplicity                               I                1
Number of electrons                        I               16
Number of alpha electrons                  I                8
Number of beta electrons                   I                8
Number of basis functions                  I               52
Number of independent functions            I               52
Number of point charges in /Mol/           I                0
Number of translation vectors              I                0
Atomic numbers                             I   N=           4
           6           8           1           1
Nuclear charges                            R   N=           4
  6.00000000E+00  8.00000000E+00  1.00000000E+00  1.00000000E+00
Current cartesian coordinates              R   N=          12
 -2.49120705E-01 -1.88972612E-06 -5.40461672E-04  2.01310256E+00  1.88972612E-06
  1.70075351E-04 -1.35765295E+00  1.77578509E+00  1.83303434E-04 -1.35765673E+00
 -1.77578509E+00  2.57002753E-04
Number of symbols in /Mol/                 I                0
Force Field                                I                0
Atom Types                                 C   N=           4
                                                
Int Atom Types                             I   N=           4
           0           0           0           0
MM charges                                 R   N=           4
  0.00000000E+00  0.00000000E+00  0.00000000E+00  0.00000000E+00
Integer atomic weights                     I   N=           4
          12          16           1           1
Real atomic weights                        R   N=           4
  1.20000000E+01  1.59949146E+01  1.00782504E+00  1.00782504E+00
Atom fragment info                         I   N=           4
           0           0           0           0
Atom residue num                           I   N=           4
           0           0           0           0
Nuclear spins                              I   N=           4
           0           0           1           1
Nuclear ZEff                               R   N=           4
 -3.60000000E+00 -5.60000000E+00 -1.00000000E+00 -1.00000000E+00
Nuclear ZNuc                               R   N=           4
  6.00000000E+00  8.00000000E+00  1.00000000E+00  1.00000000E+00
Nuclear QMom                               R   N=           4
  0.00000000E+00  0.00000000E+00  0.00000000E+00  0.00000000E+00
Nuclear GFac                               R   N=           4
  0.00000000E+00  0.00000000E+00  2.79284600E+00  2.79284600E+00
MicOpt                                     I   N=           4
          -1          -1          -1          -1
Number of residues                         I                0
Number of secondary structures             I                0
Number of contracted shells                I               26
Number of primitive shells                 I               48
Pure/Cartesian d shells                    I                1
Pure/Cartesian f shells                    I                1
Highest angular momentum                   I                2
Largest degree of contraction              I                6
Shell types                                I   N=          26
           0           0           0           0           0           1
           1           1           2           0           0           0
           0           0           1           1           1           2
           0           0           0           1           0           0
           0           1
Number of primitives per shell             I   N=          26
           6           2           1           1           1           4
           1           1           1           6           2           1
           1           1           4           1           1           1
           3           1           1           1           3           1
           1           1
Shell to atom map                          I   N=          26
           1           1           1           1           1           1
           1           1           1           2           2           2
           2           2           2           2           2           2
           3           3           3           3           4           4
           4           4
Primitive exponents                        R   N=          48
  1.35753497E+04  2.03523337E+03  4.63225624E+02  1.31200196E+02  4.28530159E+01
  1.55841858E+01  6.20671385E+00  2.57648965E+00  5.76963390E-01  2.29728310E-01
  9.51644400E-02  3.46972322E+01  7.95826228E+00  2.37808269E+00  8.14332080E-01
  2.88875470E-01  1.00568240E-01  8.00000000E-01  2.70323826E+04  4.05238714E+03
  9.22327227E+02  2.61240710E+02  8.53546413E+01  3.10350352E+01  1.22608607E+01
  4.99870760E+00  1.17031082E+00  4.64747410E-01  1.85045360E-01  6.32749548E+01
  1.46270494E+01  4.45012235E+00  1.52757996E+00  5.29351180E-01  1.74784210E-01
  1.20000000E+00  3.40613410E+01  5.12357460E+00  1.16466260E+00  3.27230410E-01
  1.03072410E-01  8.00000000E-01  3.40613410E+01  5.12357460E+00  1.16466260E+00
  3.27230410E-01  1.03072410E-01  8.00000000E-01
Contraction coefficients                   R   N=          48
  6.06460097E-04  4.69789846E-03  2.43324735E-02  9.73999560E-02  3.01955844E-01
  6.62336101E-01  6.55953080E-01  3.75856339E-01  1.00000000E+00  1.00000000E+00
  1.00000000E+00  1.13272290E-02  7.61696612E-02  3.01922515E-01  7.27850278E-01
  1.00000000E+00  1.00000000E+00  1.00000000E+00  5.72265385E-04  4.43533331E-03
  2.30201034E-02  9.28224938E-02  2.93784997E-01  6.74016046E-01  6.38399375E-01
  3.95345866E-01  1.00000000E+00  1.00000000E+00  1.00000000E+00  1.20183316E-02
  8.30054304E-02  3.19917439E-01  7.07155426E-01  1.00000000E+00  1.00000000E+00
  1.00000000E+00  2.54393072E-02  1.90085949E-01  8.52441130E-01  1.00000000E+00
  1.00000000E+00  1.00000000E+00  2.54393072E-02  1.90085949E-01  8.52441130E-01
  1.00000000E+00  1.00000000E+00  1.00000000E+00
Coordinates of each shell                  R   N=          78
 -2.49120705E-01 -1.88972612E-06 -5.40461672E-04 -2.49120705E-01 -1.88972612E-06
 -5.40461672E-04 -2.49120705E-01 -1.88972612E-06 -5.40461672E-04 -2.49120705E-01
 -1.88972612E-06 -5.40461672E-04 -2.49120705E-01 -1.88972612E-06 -5.40461672E-04
 -2.49120705E-01 -1.88972612E-06 -5.40461672E-04 -2.49120705E-01 -1.88972612E-06
 -5.40461672E-04 -2.49120705E-01 -1.88972612E-06 -5.40461672E-04 -2.49120705E-01
 -1.88972612E-06 -5.40461672E-04  2.01310256E+00  1.88972612E-06  1.70075351E-04
  2.01310256E+00  1.88972612E-06  1.70075351E-04  2.01310256E+00  1.88972612E-06
  1.70075351E-04  2.01310256E+00  1.88972612E-06  1.70075351E-04  2.01310256E+00
  1.88972612E-06  1.70075351E-04  2.01310256E+00  1.88972612E-06  1.70075351E-04
  2.01310256E+00  1.88972612E-06  1.70075351E-04  2.01310256E+00  1.88972612E-06
  1.70075351E-04  2.01310256E+00  1.88972612E-06  1.70075351E-04 -1.35765295E+00
  1.77578509E+00  1.83303434E-04 -1.35765295E+00  1.77578509E+00  1.83303434E-04
 -1.35765295E+00  1.77578509E+00  1.83303434E-04 -1.35765295E+00  1.77578509E+00
  1.83303434E-04 -1.35765673E+00 -1.77578509E+00  2.57002753E-04 -1.35765673E+00
 -1.77578509E+00  2.57002753E-04 -1.35765673E+00 -1.77578509E+00  2.57002753E-04
 -1.35765673E+00 -1.77578509E+00  2.57002753E-04
Num ILSW                                   I              100
ILSW                                       I   N=         100
           0           1           0           0           2           0
           0           0           0           0        4639          -1
           5           0           0           1           0           0
           0           0           1           0           0           0
           1           1           0           0           0           0
           0           0      100000           0          -1           0
           0           0           0           0           0           0
           0           0           0           1           0           0
           0 -2000000000           1           0           0           0
           0           0         121          52           0           0
           0           0          58           0           0           0
           0           0           0           0           0           1
           0           0           0           0           0           0
           0           0           0           0           0           0
           0           0           0           0           0           0
           0           0           0           0           0           0
           0           0           0           0
Num RLSW                                   I               52
RLSW                                       R   N=          52
  1.00000000E+00  1.00000000E+00  1.00000000E+00  1.00000000E+00  1.00000000E+00
  0.00000000E+00  2.00000000E-01  2.22036000E-01  0.00000000E+00  7.77964000E-01
  0.00000000E+00  2.00000000E-01  0.00000000E+00  0.00000000E+00  1.00000000E+00
  0.00000000E+00  0.00000000E+00  1.00000000E+00  0.00000000E+00  0.00000000E+00
  0.00000000E+00  0.00000000E+00  1.00000000E+00  0.00000000E+00  0.00000000E+00
  0.00000000E+00  0.00000000E+00  1.00000000E+00  0.00000000E+00  0.00000000E+00
  0.00000000E+00  0.00000000E+00  1.00000000E+00  0.00000000E+00  0.00000000E+00
  0.00000000E+00  0.00000000E+00  0.00000000E+00  1.00000000E+00  1.00000000E+00
  0.00000000E+00  1.00000000E+00  0.00000000E+00  0.00000000E+00  0.00000000E+00
  0.00000000E+00  0.00000000E+00  0.00000000E+00  0.00000000E+00  0.00000000E+00
  0.00000000E+00  0.00000000E+00
MxBond                                     I                3
NBond                                      I   N=           4
           3           1           1           1
IBond                                      I   N=          12
           2           3           4           1           0           0
           1           0           0           1           0           0
RBond                                      R   N=          12
  2.00000000E+00  1.00000000E+00  1.00000000E+00  2.00000000E+00  0.00000000E+00
  0.00000000E+00  1.00000000E+00  0.00000000E+00  0.00000000E+00  1.00000000E+00
  0.00000000E+00  0.00000000E+00
Virial Ratio                               R      2.004388700066690E+00
SCF Energy                                 R     -1.145074221133465E+02
CIS Energy                                 R     -1.143842636917101E+02
Total Energy                               R     -1.143842636917101E+02
Post-SCF wavefunction norm                 R      1.000000000000000E+00
RMS Density                                R      8.414257052685152E-09
Job Status                                 I                1
Nuclear derivative order                   I                0
External E-field                           R   N=          35
  0.00000000E+00  0.00000000E+00  0.00000000E+00  0.00000000E+00  0.00000000E+00
  0.00000000E+00  0.00000000E+00  0.00000000E+00  0.00000000E+00  0.00000000E+00
  0.00000000E+00  0.00000000E+00  0.00000000E+00  0.00000000E+00  0.00000000E+00
  0.00000000E+00  0.00000000E+00  0.00000000E+00  0.00000000E+00  0.00000000E+00
  0.00000000E+00  0.00000000E+00  0.00000000E+00  0.00000000E+00  0.00000000E+00
  0.00000000E+00  0.00000000E+00  0.00000000E+00  0.00000000E+00  0.00000000E+00
  0.00000000E+00  0.00000000E+00  0.00000000E+00  0.00000000E+00  0.00000000E+00
IOpCl                                      I                0
IROHF                                      I                0
Alpha Orbital Energies                     R   N=          52
 -1.92718664E+01 -1.03896665E+01 -1.17385377E+00 -7.33741124E-01 -5.92722307E-01
 -5.46924978E-01 -4.95535698E-01 -3.58369573E-01  2.45070032E-02  1.34613901E-01
  1.91440026E-01  1.95478391E-01  2.86307811E-01  2.93352283E-01  3.48070276E-01
  4.90903324E-01  5.19428254E-01  5.22981747E-01  5.99936662E-01  6.11037954E-01
  7.04917905E-01  7.67769653E-01  1.24041337E+00  1.24302665E+00  1.34643435E+00
  1.36965084E+00  1.39984531E+00  1.57176214E+00  1.72450582E+00  1.77205656E+00
  1.80524701E+00  2.02368171E+00  2.15793760E+00  2.16338360E+00  2.29733394E+00
  2.47541677E+00  2.50932591E+00  2.53365517E+00  2.70225821E+00  2.71484131E+00
  2.76067116E+00  2.77890763E+00  2.91990314E+00  3.07140565E+00  3.22360178E+00
  3.27848129E+00  3.60990227E+00  4.20425235E+00  4.61670043E+00  6.98824370E+00
  2.82836385E+01  5.08265055E+01
Alpha MO coefficients                      R   N=        2704
  7.18302375E-06 -6.99162375E-05  1.42008472E-04  4.03855151E-04  7.93779746E-04
  1.40071376E-04  2.73867739E-10  3.57590516E-08  1.74865838E-04  3.03675496E-10
  6.36738408E-08  4.84689779E-04  5.40300524E-09  1.86860298E-07  2.18475140E-05
 -8.03681201E-05 -8.20192057E-05 -6.88412882E-12  4.10844587E-08 -3.93607959E-11
  4.35626994E-01  6.37453131E-01  2.75483842E-02  8.20091705E-03 -3.00550386E-03
 -1.56985435E-03 -3.96144561E-09 -5.77759244E-07  8.56903088E-04  2.69666631E-09
  3.24423685E-07  1.10210601E-04 -1.82370996E-09 -6.35733967E-09 -6.37746248E-03
 -6.44574491E-03 -6.46616056E-03  1.11128671E-10  2.83849249E-08 -4.89055028E-10
  7.69285257E-06 -3.78737729E-05 -1.37783418E-05 -1.76584518E-05 -1.86813766E-05
 -1.73749791E-08  7.69271148E-06 -3.78725077E-05 -1.37716977E-05 -1.76582380E-05
  1.86816289E-05 -1.81509075E-08  4.67831966E-01  6.04416538E-01  3.94810881E-02
 -3.18273360E-03  7.46625143E-04  5.87997029E-04 -9.29207151E-10 -3.12128690E-07
 -6.18539786E-05 -1.01913281E-09  1.07850500E-07 -1.77150668E-04 -2.25412925E-10
 -7.18297567E-08 -7.30348672E-03 -7.80866726E-03 -7.85083407E-03  2.16042939E-09
  1.66324079E-07 -1.01536800E-09 -1.05578846E-04 -1.73154618E-04  3.20964196E-04
 -6.46652336E-04  6.65187795E-04 -2.98722544E-04 -4.49262229E-10 -8.31886892E-08
 -7.24078052E-05 -3.27176505E-10  2.68141730E-08 -2.54157626E-04 -2.38122174E-10
 -8.61728902E-08  3.78305903E-04  2.38532708E-05  6.22012275E-05  8.84130045E-10
  8.39923359E-08  9.19321154E-10  1.09431187E-04  3.20410667E-04 -2.13628460E-04
  1.39224023E-04 -1.55388102E-04 -5.06417709E-08  1.09431036E-04  3.20408482E-04
 -2.13628145E-04  1.39224382E-04  1.55386205E-04 -5.70939886E-08 -5.66394264E-02
 -1.17860931E-01  1.98333331E-01  1.07213190E-01  2.54280207E-02  1.44876648E-01
  2.60451103E-07  4.89931701E-05  5.62620962E-02  4.43583164E-08  1.49585820E-05
 -4.86435112E-03  1.43463993E-08  2.95587147E-06  2.69151696E-02 -1.05891202E-02
 -8.78477590E-03  8.67589708E-08  1.23287465E-05  4.31590617E-08 -9.02802063E-02
 -2.11625872E-01  3.16262327E-01  3.76423710E-01  1.23999967E-01 -1.26068880E-01
 -2.08848055E-07 -3.87567694E-05 -9.06122593E-02 -1.48886218E-07 -2.70850171E-05
 -4.50830666E-03  2.07505362E-09 -1.51343983E-06  2.09010582E-02 -6.35909878E-03
 -1.54915786E-03  5.74827763E-08  8.61426168E-06  1.15264208E-07  1.55826556E-02
  1.79064457E-02 -7.23394613E-03  4.73004920E-03 -3.17665778E-03 -1.88448829E-07
  1.55825702E-02  1.79063319E-02 -7.23393028E-03  4.73002805E-03  3.17659191E-03
 -3.20148447E-07 -7.95018399E-02 -1.68714969E-01  2.80888293E-01  3.13624891E-01
  7.85326397E-02 -1.53494993E-01 -4.07487735E-07  4.47197860E-05 -9.80399467E-02
 -2.34031289E-07  2.56760377E-05 -3.21298294E-02 -1.30593922E-07  4.42656199E-06
 -1.49143844E-03  1.55101902E-02 -1.69214092E-03  4.20762056E-08 -5.81540579E-06
 -4.12331380E-07  4.09294266E-02  9.75081241E-02 -1.49031805E-01 -2.06253573E-01
 -1.35116649E-01 -8.11470363E-02 -1.19851788E-07  7.01869193E-06 -5.80300024E-02
 -9.68818680E-08  9.34464660E-06 -2.23380405E-02 -1.22439878E-08 -1.40310108E-06
  4.50339268E-03 -1.33622276E-03 -3.32433026E-03  1.61411626E-08 -2.29399470E-06
 -4.76353621E-08  1.10054225E-01  1.41595349E-01  2.06141901E-02  6.20098919E-03
 -1.67868972E-02 -5.66201151E-06  1.10054734E-01  1.41595975E-01  2.06141701E-02
  6.20107759E-03  1.67869290E-02 -6.35854204E-06 -5.81972781E-08 -1.23387057E-07
  2.16011826E-07  3.69353268E-07 -2.05842126E-07  4.04335597E-07  3.19513505E-01
 -6.63072662E-06  1.73722645E-07  2.41693431E-01 -5.01578444E-06 -2.30570375E-08
  6.57512158E-02 -1.36445942E-06 -2.67383553E-08  8.10184070E-08 -2.14683336E-08
  3.75054009E-03 -7.82224153E-08  1.70080692E-05  1.70490928E-07  4.09703938E-07
 -5.77413919E-07 -1.06277539E-06 -8.70933347E-07 -1.54411867E-06  2.21938876E-01
 -4.60629205E-06 -1.11854562E-06  1.83463434E-01 -3.80754740E-06 -5.03324482E-07
  7.51012127E-02 -1.55880446E-06  1.45094269E-07 -7.34589688E-08 -2.39650299E-08
 -2.09488591E-02  4.34757856E-07 -6.13592617E-06  1.16824614E-01  1.56492217E-01
  5.08705073E-02  1.04821038E-02 -1.07489821E-02 -7.34675409E-06 -1.16824606E-01
 -1.56492265E-01 -5.08703808E-02 -1.04821351E-02 -1.07489867E-02  7.79221156E-06
  1.39346118E-02  3.07129617E-02 -6.69065451E-02 -5.35599366E-02  4.83591246E-02
 -2.71799996E-01  5.84659768E-07  5.78692158E-05 -1.91901014E-01  6.06214466E-07
  5.85099528E-05 -2.07581160E-02  3.31195691E-07  2.94219740E-05 -2.08978943E-02
  1.57789902E-02  4.29420949E-03  9.69062110E-09 -2.63280991E-06 -2.75051717E-07
 -3.68788838E-02 -8.89674093E-02  1.23932894E-01  2.34392415E-01  2.29568233E-01
  3.92484396E-01  1.69259668E-06  2.47764620E-04  2.82276904E-01  1.34231084E-06
  1.96018647E-04  1.30836756E-01  5.74255644E-07  8.83526447E-05 -2.59120190E-02
  5.95993814E-03  7.84265652E-03 -1.47080024E-07 -2.38254353E-05  4.50399789E-08
  5.17251056E-02  7.21421604E-02  2.77417561E-02 -3.28394935E-03 -7.04859137E-03
 -1.06073251E-06  5.17248329E-02  7.21419067E-02  2.77417069E-02 -3.28395020E-03
  7.04861831E-03 -1.35334009E-06  1.72666592E-05  3.65984453E-05 -6.02494462E-05
 -8.27287002E-05 -4.74433220E-05  8.06001527E-05  5.46681236E-06  2.63439262E-01
  4.63372785E-05  4.88645147E-06  2.35461382E-01  2.90407490E-06  1.73175579E-06
  8.34724347E-02 -1.19108217E-05 -8.03013061E-06  1.44208624E-05  7.20422262E-07
  3.47298924E-02  5.64249978E-08  7.01463487E-06  1.70234073E-05 -2.28867572E-05
 -4.16074714E-05 -8.86505503E-05 -2.72858909E-04  7.75552084E-06  3.73756192E-01
 -2.11997579E-04  6.61705170E-06  3.18888530E-01 -1.04902855E-04  3.60192053E-06
  1.73578356E-01  2.53965998E-05 -2.77007398E-06 -1.91692463E-05 -5.96719338E-07
 -2.87573227E-02 -5.16885263E-08 -9.09160129E-06 -3.49123944E-05 -1.70532644E-05
  4.04771984E-06  7.73395024E-07  7.34183684E-03 -9.09163781E-06 -3.49125616E-05
 -1.70540976E-05  4.04808601E-06 -4.68629017E-07  7.34184577E-03  2.06680211E-08
  4.36296193E-08 -9.23224900E-08  4.76446879E-08 -8.06698553E-07  3.85768339E-07
 -1.14460308E-01  2.37500906E-06  4.63204132E-07 -6.62382249E-02  1.37439710E-06
  6.41816287E-07  4.54139107E-02 -9.42957536E-07 -2.26680003E-09  2.39389886E-08
 -3.36377878E-08  5.17310352E-02 -1.07314172E-06  2.70722859E-06 -2.16750796E-08
 -5.26031910E-08  8.43965180E-08  1.80562479E-07 -4.75462277E-07 -1.23896847E-06
  4.23087630E-01 -8.77972377E-06 -9.30386626E-07  3.63056058E-01 -7.53411470E-06
 -6.55300648E-07  2.64564135E-01 -5.48967644E-06  4.96467921E-08 -5.87596615E-08
  3.67881128E-10 -1.33614128E-02  2.77332453E-07 -5.72584220E-06 -1.03907430E-01
 -2.23032885E-01 -1.85036943E-01 -4.71335721E-03  6.22167137E-03  7.31921097E-06
  1.03907118E-01  2.23032521E-01  1.85037286E-01  4.71344161E-03  6.22154069E-03
 -7.57699509E-06  3.90311502E-05  8.42467026E-05 -1.51651944E-04 -2.23985730E-04
 -9.40365795E-04  3.28535551E-05  6.96858437E-06  3.35809400E-01  2.95074579E-05
  7.47898763E-06  3.60378596E-01  1.34971749E-04  1.09489272E-05  5.27591185E-01
  1.63554931E-05  3.64691102E-06 -3.34707514E-05 -6.77476039E-07 -3.26257987E-02
 -5.88384204E-08 -5.66719954E-06 -1.35341964E-05  2.41094835E-05  3.56213593E-05
 -3.46143616E-06  4.05646082E-05 -6.60573674E-06 -3.18333794E-01  4.00128606E-05
 -5.39555247E-06 -2.60022926E-01  8.42472278E-05 -8.95504577E-06 -4.31523817E-01
  6.03547016E-06  1.11161108E-06 -4.51292388E-06 -1.03565907E-07 -4.98891709E-03
 -5.99586178E-09  8.43957632E-05  1.69201410E-04  4.88030403E-04 -3.29058009E-06
 -5.56724669E-06  2.65726938E-02  8.43962062E-05  1.69202723E-04  4.88031811E-04
 -3.28975443E-06  6.67009268E-06  2.65727931E-02 -4.79165639E-02 -1.07518637E-01
  1.80169999E-01  4.27105706E-01  2.18337354E+00 -1.48716753E-01  1.16273749E-07
  1.61341552E-04 -1.21959319E-01  7.95088025E-08  1.39383825E-04 -7.16644973E-01
  2.45653518E-08  8.86762303E-04 -2.26477908E-03 -3.11935527E-02  1.40797981E-02
 -3.55484168E-08 -4.80748154E-06  1.08499260E-06  4.20285358E-04  1.36031871E-03
  9.90892405E-03 -6.03289114E-02  1.11795366E-01  4.98128167E-02  1.54871824E-07
 -1.07931034E-04  5.18745603E-02  1.07272053E-07 -5.40257219E-05  2.23319689E-02
  3.81568859E-07 -3.43132980E-04  4.43689810E-03 -4.10227013E-04  5.37032902E-03
 -1.94628660E-08 -7.59469721E-06  1.38485747E-07 -5.09630904E-02  4.81933950E-02
 -1.84996732E+00  9.87439693E-03 -3.06809734E-02  4.70649454E-06 -5.09630182E-02
  4.81938943E-02 -1.84997116E+00  9.87449385E-03  3.06810291E-02  3.43303008E-06
  9.20041670E-03  1.96910439E-02 -9.49860586E-03 -2.78510265E-01 -1.87050698E+00
 -1.31914969E-02  1.29287898E-05 -1.95314604E-05 -1.29105463E-01  1.26426331E-05
 -6.89581806E-05 -1.79577977E+00  6.39487166E-05 -5.66602223E-04  5.85149233E-02
 -2.68116892E-02 -2.56313029E-02  1.08637302E-06  2.86002092E-05  2.73886947E-08
 -3.19561854E-02 -7.02839145E-02  3.17056199E-01 -5.84743095E-01  2.53505789E+00
 -6.08213951E-02 -4.61441643E-06 -6.68171406E-06 -2.28214196E-02 -2.26651906E-06
  1.16483002E-05 -5.85616445E-01 -1.72243572E-05 -1.88083792E-04  6.24617585E-02
  5.55685309E-02  5.66759578E-02 -5.09568102E-07  2.72883511E-06  2.61457157E-08
  1.37016073E-02  2.66961243E-02 -7.97812887E-03 -1.74779100E-02 -8.59553981E-03
 -1.20838498E-05  1.37037530E-02  2.66806766E-02 -7.77274427E-03 -1.74800994E-02
  8.59341616E-03 -1.24388199E-05  3.85551308E-07  8.01252214E-07 -6.35393262E-07
 -1.06463593E-05 -8.96325563E-05 -3.02629285E-07 -2.79599233E-01  5.80121874E-06
 -4.93478114E-06 -2.88396425E-01  5.98166333E-06 -8.52041548E-05 -1.44787845E+00
  3.00185326E-05  2.56819421E-06 -1.22838734E-06 -1.29705362E-06 -1.99501319E-02
  4.15617970E-07  2.49478759E-05 -1.44821514E-06 -3.16697999E-06  1.48571117E-05
 -2.86359227E-05  1.19804934E-04 -2.74870570E-06  9.05340596E-02 -1.87911694E-06
 -7.68156696E-07  4.30657605E-02 -8.93192987E-07 -2.73778313E-05  3.41446114E-01
 -7.09470141E-06  2.93753051E-06  2.72714056E-06  2.70752946E-06  1.14251581E-02
 -2.36937309E-07  8.72112025E-06  1.78142133E-02 -1.87481794E-01  2.32324902E+00
 -2.29979742E-02  2.31300926E-02  2.16611850E-05 -1.78128373E-02  1.87484808E-01
 -2.32324896E+00  2.29965526E-02  2.31308015E-02 -2.26218293E-05  1.45797369E-02
  5.01610840E-02  1.74639150E-01 -1.72218670E+00  5.38074846E+00  1.13929667E-02
 -2.84943040E-07  3.06442375E-04  1.64420756E-01 -5.78742650E-07  6.68356460E-04
 -1.61471465E+00  5.17534980E-06  3.09252906E-04  7.10771385E-02  2.57191713E-02
  1.03571055E-01 -6.67067124E-08  1.82938265E-06  1.86574439E-06  6.19611422E-03
  1.44085930E-02 -3.49569557E-02  1.92200308E-02 -1.74871604E-01 -2.29132302E-02
  1.93792597E-07 -1.19152932E-04 -4.79287115E-02  3.55724818E-07 -9.84317331E-05
  1.30968728E-01 -1.09396228E-06 -3.29838164E-04 -1.77094811E-02 -5.97595316E-03
  9.13174237E-03  4.38460412E-09 -2.40624023E-05  3.61942609E-07 -5.54812390E-02
 -3.85986632E-01 -1.95853242E+00 -1.45948203E-02 -1.49965375E-02  2.15778260E-05
 -5.54811642E-02 -3.85984745E-01 -1.95853271E+00 -1.45947740E-02  1.49966610E-02
  2.09550229E-05 -1.15061639E-05 -2.26925913E-05  1.01147945E-04 -3.72297543E-04
  3.30501946E-03  4.76238736E-05 -6.24647955E-06 -3.01002153E-01  2.11389968E-04
 -1.61061182E-05 -7.76130756E-01 -1.41774993E-03  2.74416960E-05  1.32234909E+00
  1.88329415E-05 -1.92645462E-05  3.82799042E-05 -2.55735419E-07 -1.23394074E-02
 -8.28707751E-09  5.49596803E-06  1.26044053E-05 -4.44463764E-05  6.19632834E-05
 -2.32373532E-04  5.80925256E-06  1.85663813E-07  8.93462989E-03 -3.37743796E-05
  8.31924421E-07  4.00833188E-02  2.08414372E-04 -1.94370605E-06 -9.36606970E-02
 -1.79709064E-05 -1.18271288E-05  9.76646654E-06  3.10122863E-07  1.49421087E-02
  2.57341684E-08 -5.40470991E-05 -4.80376828E-04 -1.32611428E-03 -1.46431375E-05
 -1.25152494E-05  2.68588233E-03 -5.40471692E-05 -4.80375505E-04 -1.32611922E-03
 -1.46436626E-05  1.26268957E-05  2.68588617E-03 -4.67274249E-08 -1.58719206E-07
 -5.61887288E-07  6.58262071E-06 -4.75234360E-06  2.52392319E-09 -5.33008790E-02
  1.10552807E-06  7.71182502E-07 -4.69379258E-01  9.74049580E-06  1.37901874E-05
  3.86728270E+00 -8.02523671E-05 -1.84674277E-07 -2.65662080E-07 -1.86841403E-07
  1.88554392E-02 -3.91076710E-07 -6.87384868E-05  9.00036159E-08  1.88894792E-07
 -1.31611781E-06  3.69928025E-06 -1.59183598E-05 -1.43099177E-07 -1.75598691E-01
  3.64456300E-06 -4.97251542E-07 -1.26509418E-01  2.62561335E-06  4.73613064E-06
 -5.71422217E-01  1.18605581E-05 -2.68048505E-07 -2.93535364E-07 -2.52607560E-07
  4.06701269E-03 -8.43407943E-08 -1.15436362E-05 -2.24736892E-02 -2.10646448E-01
 -2.60429871E+00  3.08857674E-02 -7.05121135E-03 -4.35854641E-05  2.24739421E-02
  2.10646314E-01  2.60431107E+00 -3.08859023E-02 -7.05112569E-03  4.38781402E-05
  6.31705082E-02  1.51994188E-01  3.83759480E-02 -3.08389369E+00  4.23900285E+00
  4.37718276E-02  2.16226106E-07 -1.69475871E-04  1.24761468E-01  4.41424011E-08
 -6.43162335E-04 -8.09183623E-01  1.15713774E-06  7.72240811E-04  5.28683383E-02
  4.16929975E-02  3.16187663E-02  7.86031354E-08  7.32658492E-06 -2.41988943E-07
 -2.05752990E-02 -5.49874059E-02  8.07654618E-03  4.50476189E-01  1.78262725E-01
 -1.41045788E-02 -5.79475256E-07 -1.51851116E-05  8.90168748E-02 -6.16244785E-07
 -3.73719007E-05 -1.07677713E+00 -6.00632772E-07 -3.63580478E-05 -5.44054815E-02
 -1.88397883E-02 -1.92086302E-02 -1.49072471E-07  6.28076699E-06 -8.85834969E-09
  8.36189857E-02  1.10291138E+00 -2.30158578E+00  2.59816148E-02 -7.25172767E-03
 -1.67720650E-05  8.36193042E-02  1.10291538E+00 -2.30158901E+00  2.59815087E-02
  7.25172538E-03 -1.70723422E-05  1.35681945E-02  2.61697118E-02 -4.48724299E-02
  5.07097994E-01  2.35196010E+00  2.11991689E-01  9.33791856E-06 -5.15306826E-05
  9.52302887E-01  3.32087857E-05 -9.87256496E-05 -8.57232088E-01 -2.88998084E-05
  3.06724000E-04  6.83437749E-03 -1.73230241E-02 -3.57637640E-02  1.51841043E-07
  1.21762408E-05 -4.42888137E-07  1.96014758E-02  5.37683109E-02  3.63233438E-02
 -5.74595576E-01 -5.88496575E-01 -1.20353611E-01 -2.01581274E-06 -4.59489016E-05
 -2.58347901E-01 -1.22600723E-06 -1.32411236E-04  1.71906491E+00 -8.25496903E-06
  7.56428607E-04  6.01726796E-02  3.32080006E-02  2.96468710E-02 -8.77670672E-07
  2.43361695E-05 -8.57544275E-08  6.09790150E-02  6.98513626E-01 -1.40908393E+00
 -3.06424841E-03 -1.77584057E-02 -2.76351929E-05  6.09839235E-02  6.98587209E-01
 -1.40918875E+00 -3.06410406E-03  1.77611182E-02 -2.83707488E-05 -1.02740661E-07
 -1.01355492E-07  8.60427901E-07 -1.77723112E-05 -6.58802502E-05 -8.89298977E-06
  3.51880233E-01 -7.30188096E-06 -3.52715243E-05  1.17999259E+00 -2.44852985E-05
  3.64282950E-05 -9.32920063E-01  1.93532019E-05  9.36058341E-08  3.50565674E-07
  7.44358374E-07  9.08138345E-03 -1.88666785E-07 -2.71328821E-05 -7.23716897E-07
 -1.96148832E-06 -1.92720223E-06  2.55189093E-05  4.81725390E-06  5.98882573E-08
 -8.58290505E-02  1.78269560E-06  5.02760381E-07 -6.67661320E-02  1.38980651E-06
 -4.16648227E-05 -3.80671594E-01  7.87511918E-06 -1.90046979E-06 -1.44474668E-06
 -1.17116609E-06 -3.33103269E-02  6.90617982E-07 -1.79422914E-05 -9.25280625E-02
 -1.36194341E+00  1.79485989E+00  3.21545329E-03  4.73512671E-02 -2.55033146E-05
  9.25247394E-02  1.36190193E+00 -1.79476922E+00 -3.21638591E-03  4.73505770E-02
  2.35388778E-05 -6.23670956E-05 -1.43923160E-04  5.69370291E-05  1.86653115E-03
 -2.40193413E-03  3.23791424E-04  1.91668362E-06  9.20120498E-02  1.61665076E-03
 -7.92415513E-07 -3.91708896E-02 -5.23075807E-04 -1.45862300E-05 -7.01881388E-01
 -4.81586683E-05 -2.05458724E-06  2.85435499E-05 -2.53929861E-07 -1.22486554E-02
 -4.05965648E-09  3.31749793E-05  8.58053466E-05  1.08193528E-04 -1.45214504E-03
  6.15684561E-04  5.53521896E-04 -6.28896927E-06 -3.02939526E-01  1.25754836E-03
 -1.50159323E-05 -7.23442124E-01 -6.34753520E-04  3.37288620E-05  1.62522649E+00
  4.27281843E-05  5.91968907E-05  6.08147698E-05  4.02348364E-07  1.94189080E-02
  3.62425318E-08 -3.55215634E-05 -4.01734285E-05  7.52573877E-04  1.36520893E-04
  1.21842254E-05 -6.06735287E-03 -3.55190201E-05 -4.01256559E-05  7.52511199E-04
  1.36520421E-04 -1.24354684E-05 -6.06765105E-03 -3.46640314E-02 -8.15039994E-02
 -2.31156939E-02  1.10288819E+00 -2.08162305E-02  3.39500922E-01  4.11753584E-06
 -1.72592571E-05  1.39055040E+00  1.31136659E-05  3.78747505E-04 -1.08067432E+00
 -8.59110076E-06  7.90871755E-04 -5.18956233E-02 -1.21764177E-03  2.77151982E-02
  1.31285339E-07  9.88422388E-06  6.91420879E-07  2.72893759E-02  7.07829447E-02
  8.39964330E-02 -1.16911622E+00  3.98240008E-01  3.58235595E-01 -5.83954687E-07
  4.90206089E-04  8.15248531E-01  1.92964051E-07  1.16785598E-03 -5.76561629E-02
 -2.90575095E-06 -2.08969960E-03  4.47404644E-02  4.55734804E-02  4.40849954E-02
 -4.12016472E-07 -2.39965629E-05 -3.59775033E-08 -4.89493139E-03  1.42046536E-01
 -4.11649244E-01  7.72587863E-02  1.47443076E-02  4.22145837E-05 -4.89356136E-03