 Entering Gaussian System, Link 0=g16
 Input=00_methanal.gjf
 Output=00_methanal.log
 Initial command:
 /usr/remote/gaussian/g16/l1.exe "/tmp/Gau-30510.inp" -scrdir="/tmp/"
 Entering Link 1 = /usr/remote/gaussian/g16/l1.exe PID=     30511.
  
 Copyright (c) 1988-2017, Gaussian, Inc.  All Rights Reserved.
  
 This is part of the Gaussian(R) 16 program.  It is based on
 the Gaussian(R) 09 system (copyright 2009, Gaussian, Inc.),
 the Gaussian(R) 03 system (copyright 2003, Gaussian, Inc.),
 the Gaussian(R) 98 system (copyright 1998, Gaussian, Inc.),
 the Gaussian(R) 94 system (copyright 1995, Gaussian, Inc.),
 the Gaussian 92(TM) system (copyright 1992, Gaussian, Inc.),
 the Gaussian 90(TM) system (copyright 1990, Gaussian, Inc.),
 the Gaussian 88(TM) system (copyright 1988, Gaussian, Inc.),
 the Gaussian 86(TM) system (copyright 1986, Carnegie Mellon
 University), and the Gaussian 82(TM) system (copyright 1983,
 Carnegie Mellon University). Gaussian is a federally registered
 trademark of Gaussian, Inc.
  
 This software contains proprietary and confidential information,
 including trade secrets, belonging to Gaussian, Inc.
  
 This software is provided under written license and may be
 used, copied, transmitted, or stored only in accord with that
 written license.
  
 The following legend is applicable only to US Government
 contracts under FAR:
  
                    RESTRICTED RIGHTS LEGEND
  
 Use, reproduction and disclosure by the US Government is
 subject to restrictions as set forth in subparagraphs (a)
 and (c) of the Commercial Computer Software - Restricted
 Rights clause in FAR 52.227-19.
  
 Gaussian, Inc.
 340 Quinnipiac St., Bldg. 40, Wallingford CT 06492
  
  
 ---------------------------------------------------------------
 Warning -- This program may not be used in any manner that
 competes with the business of Gaussian, Inc. or will provide
 assistance to any competitor of Gaussian, Inc.  The licensee
 of this program is prohibited from giving any competitor of
 Gaussian, Inc. access to this program.  By using this program,
 the user acknowledges that Gaussian, Inc. is engaged in the
 business of creating and licensing software in the field of
 computational chemistry and represents and warrants to the
 licensee that it is not a competitor of Gaussian, Inc. and that
 it will not use this program in any manner prohibited above.
 ---------------------------------------------------------------
  

 Cite this work as:
 Gaussian 16, Revision B.01,
 M. J. Frisch, G. W. Trucks, H. B. Schlegel, G. E. Scuseria, 
 M. A. Robb, J. R. Cheeseman, G. Scalmani, V. Barone, 
 G. A. Petersson, H. Nakatsuji, X. Li, M. Caricato, A. V. Marenich, 
 J. Bloino, B. G. Janesko, R. Gomperts, B. Mennucci, H. P. Hratchian, 
 J. V. Ortiz, A. F. Izmaylov, J. L. Sonnenberg, D. Williams-Young, 
 F. Ding, F. Lipparini, F. Egidi, J. Goings, B. Peng, A. Petrone, 
 T. Henderson, D. Ranasinghe, V. G. Zakrzewski, J. Gao, N. Rega, 
 G. Zheng, W. Liang, M. Hada, M. Ehara, K. Toyota, R. Fukuda, 
 J. Hasegawa, M. Ishida, T. Nakajima, Y. Honda, O. Kitao, H. Nakai, 
 T. Vreven, K. Throssell, J. A. Montgomery, Jr., J. E. Peralta, 
 F. Ogliaro, M. J. Bearpark, J. J. Heyd, E. N. Brothers, K. N. Kudin, 
 V. N. Staroverov, T. A. Keith, R. Kobayashi, J. Normand, 
 K. Raghavachari, A. P. Rendell, J. C. Burant, S. S. Iyengar, 
 J. Tomasi, M. Cossi, J. M. Millam, M. Klene, C. Adamo, R. Cammi, 
 J. W. Ochterski, R. L. Martin, K. Morokuma, O. Farkas, 
 J. B. Foresman, and D. J. Fox, Gaussian, Inc., Wallingford CT, 2016.
 
 ******************************************
 Gaussian 16:  ES64L-G16RevB.01 20-Dec-2017
                 5-Feb-2024 
 ******************************************
 %mem=1GB
 %chk=00_methanal.chk
 %rwf=00_methanal.rwf
 ----------------------------------------------------------------------
 #p td(50-50,nstates=5) wB97XD/TZVP iop(3/33=1) pop=full iop(8/10=90) E
 xtraLinks(L319) nosymm iop(9/40=3)
 ----------------------------------------------------------------------
 1/38=1,172=1/1;
 2/12=2,15=1,17=6,18=5,40=1/2;
 3/5=19,7=101,11=9,25=1,30=1,33=1,74=-58/1,2,3,8,19;
 4//1;
 5/5=2,38=5/2;
 8/6=1,10=90,108=5/1;
 9/40=3,41=5,42=1,48=2,70=2/14;
 6/7=3/1;
 99/5=1,9=1/99;
 Leave Link    1 at Mon Feb  5 13:19:35 2024, MaxMem=   134217728 cpu:               0.0 elap:               0.1
 (Enter /usr/remote/gaussian/g16/l101.exe)
 ----
 test
 ----
 Symbolic Z-matrix:
 Charge =  0 Multiplicity = 1
 C(Zeff=6.0)          -0.13183  0.        -0.00029 
 O(Zeff=8.0)           1.06529   0.        0.00009 
 H(Zeff=1.0)          -0.71844   0.93971   0.0001 
 H(Zeff=1.0)          -0.71844  -0.93971   0.00014 
 
 ITRead=  0  0  0  0
 MicOpt= -1 -1 -1 -1
 NAtoms=      4 NQM=        4 NQMF=       0 NMMI=      0 NMMIF=      0
                NMic=       0 NMicF=      0.
                    Isotopes and Nuclear Properties:
 (Nuclear quadrupole moments (NQMom) in fm**2, nuclear magnetic moments (NMagM)
  in nuclear magnetons)

  Atom         1           2           3           4
 IAtWgt=          12          16           1           1
 AtmWgt=  12.0000000  15.9949146   1.0078250   1.0078250
 NucSpn=           0           0           1           1
 AtZEff=  -6.0000000  -8.0000000  -1.0000000  -1.0000000
 NQMom=    0.0000000   0.0000000   0.0000000   0.0000000
 NMagM=    0.0000000   0.0000000   2.7928460   2.7928460
 AtZNuc=   6.0000000   8.0000000   1.0000000   1.0000000
 Leave Link  101 at Mon Feb  5 13:19:35 2024, MaxMem=   134217728 cpu:               0.1 elap:               0.1
 (Enter /usr/remote/gaussian/g16/l202.exe)
                          Input orientation:                          
 ---------------------------------------------------------------------
 Center     Atomic      Atomic             Coordinates (Angstroms)
 Number     Number       Type             X           Y           Z
 ---------------------------------------------------------------------
      1          6           0       -0.131829   -0.000001   -0.000286
      2          8           0        1.065288    0.000001    0.000090
      3          1           0       -0.718439    0.939705    0.000097
      4          1           0       -0.718441   -0.939705    0.000136
 ---------------------------------------------------------------------
                    Distance matrix (angstroms):
                    1          2          3          4
     1  C    0.000000
     2  O    1.197117   0.000000
     3  H    1.107772   2.016116   0.000000
     4  H    1.107771   2.016119   1.879410   0.000000
 Symmetry turned off by external request.
 Stoichiometry    CH2O
 Framework group  C1[X(CH2O)]
 Deg. of freedom     6
 Full point group                 C1      NOp   1
 Rotational constants (GHZ):         283.9349571          39.2953494          34.5181868
 Leave Link  202 at Mon Feb  5 13:19:35 2024, MaxMem=   134217728 cpu:               0.0 elap:               0.0
 (Enter /usr/remote/gaussian/g16/l301.exe)
 Standard basis: TZVP (5D, 7F)
                         Coordinates in L301:                         
 ---------------------------------------------------------------------
 Center     Atomic      Atomic             Coordinates (Angstroms)
 Number     Number       Type             X           Y           Z
 ---------------------------------------------------------------------
      1          6           0       -0.131829   -0.000001   -0.000286
      2          8           0        1.065288    0.000001    0.000090
      3          1           0       -0.718439    0.939705    0.000097
      4          1           0       -0.718441   -0.939705    0.000136
 ---------------------------------------------------------------------
 FixB: optimizing general contractions.
 Ernie: Thresh=  0.10000D-02 Tol=  0.10000D-05 Strict=F.
 IA=     1 ShT= 0 ShC= 0 NL=   5 NS=   3.
 IA=     1 L=0 SC=0 ISt=    1 NBk=    2 NP=    8 IndPr=    0.
 DoElim1:  L=0 select primitive    2 from    2 using    1 C= 1.72D-03
 DoElim2:  L=0 select primitive    7 from    1 using    2 C= 4.14D-01
 Delete L=0 primitive    6 from    2 C=  0.00D+00.
 Delete L=0 primitive    5 from    2 C=  0.00D+00.
 Delete L=0 primitive    4 from    2 C=  0.00D+00.
 Delete L=0 primitive    3 from    2 C=  0.00D+00.
 Delete L=0 primitive    2 from    2 C=  0.00D+00.
 Delete L=0 primitive    1 from    2 C=  0.00D+00.
 Delete L=0 primitive    8 from    1 C=  0.00D+00.
 Delete L=0 primitive    7 from    1 C=  0.00D+00.
 IA=     1 L=0 SC=0 ISt=    0 NBk=    0 NP=    0 IndPr=    8.
 IA=     1 ShT= 1 ShC= 1 NL=   3 NS=   2.
 IA=     1 L=1 SC=1 ISt=    0 NBk=    0 NP=    0 IndPr=    0.
 IA=     1 ShT= 2 ShC= 2 NL=   1 NS=   1.
 IA=     1 L=2 SC=2 ISt=    0 NBk=    0 NP=    0 IndPr=    0.
 IA=     2 ShT= 0 ShC= 0 NL=   5 NS=   3.
 IA=     2 L=0 SC=0 ISt=    1 NBk=    2 NP=    8 IndPr=    0.
 DoElim1:  L=0 select primitive    2 from    2 using    1 C= 1.68D-03
 DoElim2:  L=0 select primitive    7 from    1 using    2 C= 3.98D-01
 Delete L=0 primitive    6 from    2 C=  0.00D+00.
 Delete L=0 primitive    5 from    2 C=  0.00D+00.
 Delete L=0 primitive    4 from    2 C=  0.00D+00.
 Delete L=0 primitive    3 from    2 C=  0.00D+00.
 Delete L=0 primitive    2 from    2 C=  0.00D+00.
 Delete L=0 primitive    1 from    2 C=  0.00D+00.
 Delete L=0 primitive    8 from    1 C=  0.00D+00.
 Delete L=0 primitive    7 from    1 C=  0.00D+00.
 IA=     2 L=0 SC=0 ISt=    0 NBk=    0 NP=    0 IndPr=    8.
 IA=     2 ShT= 1 ShC= 1 NL=   3 NS=   2.
 IA=     2 L=1 SC=1 ISt=    0 NBk=    0 NP=    0 IndPr=    0.
 IA=     2 ShT= 2 ShC= 2 NL=   1 NS=   1.
 IA=     2 L=2 SC=2 ISt=    0 NBk=    0 NP=    0 IndPr=    0.
 IA=     3 ShT= 0 ShC= 0 NL=   3 NS=   2.
 IA=     3 L=0 SC=0 ISt=    0 NBk=    0 NP=    0 IndPr=    0.
 IA=     3 ShT= 1 ShC= 1 NL=   1 NS=   1.
 IA=     3 L=1 SC=1 ISt=    0 NBk=    0 NP=    0 IndPr=    0.
 IA=     4 ShT= 0 ShC= 0 NL=   3 NS=   2.
 IA=     4 L=0 SC=0 ISt=    0 NBk=    0 NP=    0 IndPr=    0.
 IA=     4 ShT= 1 ShC= 1 NL=   1 NS=   1.
 IA=     4 L=1 SC=1 ISt=    0 NBk=    0 NP=    0 IndPr=    0.
 LdAtmC:  AtmChg=     6.000000     8.000000     1.000000     1.000000
 AtZEff=      6.0000000      8.0000000      1.0000000      1.0000000
    50 basis functions,    86 primitive gaussians,    52 cartesian basis functions
     8 alpha electrons        8 beta electrons
       nuclear repulsion energy        31.4315454123 Hartrees.
 IS=     1 IAt=     1 ISR=     1 T=0 IP=      1 IndIP=      1 IndIPD=      0 C=  5.435952D-01  0.000000D+00                             NZ=T
 IS=     1 IAt=     1 ISR=     1 T=0 IP=      2 IndIP=      2 IndIPD=      1 C=  1.014552D+00  0.000000D+00                             NZ=T
 IS=     1 IAt=     1 ISR=     1 T=0 IP=      3 IndIP=      3 IndIPD=      2 C=  1.731573D+00  0.000000D+00                             NZ=T
 IS=     1 IAt=     1 ISR=     1 T=0 IP=      4 IndIP=      4 IndIPD=      3 C=  2.691037D+00  0.000000D+00                             NZ=T
 IS=     1 IAt=     1 ISR=     1 T=0 IP=      5 IndIP=      5 IndIPD=      4 C=  3.604455D+00  0.000000D+00                             NZ=T
 IS=     1 IAt=     1 ISR=     1 T=0 IP=      6 IndIP=      6 IndIPD=      5 C=  3.702556D+00  0.000000D+00                             NZ=T
 IS=     2 IAt=     1 ISR=     2 T=0 IP=      1 IndIP=      7 IndIPD=      0 C=  1.838354D+00  0.000000D+00                             NZ=T
 IS=     2 IAt=     1 ISR=     2 T=0 IP=      2 IndIP=      8 IndIPD=      1 C=  5.447576D-01  0.000000D+00                             NZ=T
 IS=     3 IAt=     1 ISR=     3 T=0 IP=      1 IndIP=      9 IndIPD=      0 C=  4.718145D-01  0.000000D+00                             NZ=T
 IS=     4 IAt=     1 ISR=     4 T=0 IP=      1 IndIP=     10 IndIPD=      0 C=  2.364945D-01  0.000000D+00                             NZ=T
 IS=     5 IAt=     1 ISR=     5 T=0 IP=      1 IndIP=     11 IndIPD=      0 C=  1.221142D-01  0.000000D+00                             NZ=T
 IS=     6 IAt=     1 ISR=     6 T=1 IP=      1 IndIP=     12 IndIPD=      0 C=  0.000000D+00  1.359666D+00                             NZ=T
 IS=     6 IAt=     1 ISR=     6 T=1 IP=      2 IndIP=     13 IndIPD=      1 C=  0.000000D+00  1.451259D+00                             NZ=T
 IS=     6 IAt=     1 ISR=     6 T=1 IP=      3 IndIP=     14 IndIPD=      2 C=  0.000000D+00  1.270923D+00                             NZ=T
 IS=     6 IAt=     1 ISR=     6 T=1 IP=      4 IndIP=     15 IndIPD=      3 C=  0.000000D+00  8.025721D-01                             NZ=T
 IS=     7 IAt=     1 ISR=     7 T=1 IP=      1 IndIP=     16 IndIPD=      0 C=  0.000000D+00  3.018759D-01                             NZ=T
 IS=     8 IAt=     1 ISR=     8 T=1 IP=      1 IndIP=     17 IndIPD=      0 C=  0.000000D+00  8.072650D-02                             NZ=T
 IS=     9 IAt=     1 ISR=     9 T=2 IP=      1 IndIP=     18 IndIPD=      1 C=  0.000000D+00  0.000000D+00  1.113825D+00  0.000000D+00 NZ=T
 IS=    10 IAt=     2 ISR=     1 T=0 IP=      1 IndIP=     19 IndIPD=      0 C=  8.598463D-01  0.000000D+00                             NZ=T
 IS=    10 IAt=     2 ISR=     1 T=0 IP=      2 IndIP=     20 IndIPD=      1 C=  1.605534D+00  0.000000D+00                             NZ=T
 IS=    10 IAt=     2 ISR=     1 T=0 IP=      3 IndIP=     21 IndIPD=      2 C=  2.745877D+00  0.000000D+00                             NZ=T
 IS=    10 IAt=     2 ISR=     1 T=0 IP=      4 IndIP=     22 IndIPD=      3 C=  4.298768D+00  0.000000D+00                             NZ=T
 IS=    10 IAt=     2 ISR=     1 T=0 IP=      5 IndIP=     23 IndIPD=      4 C=  5.879766D+00  0.000000D+00                             NZ=T
 IS=    10 IAt=     2 ISR=     1 T=0 IP=      6 IndIP=     24 IndIPD=      5 C=  6.316398D+00  0.000000D+00                             NZ=T
 IS=    11 IAt=     2 ISR=     2 T=0 IP=      1 IndIP=     25 IndIPD=      0 C=  2.981215D+00  0.000000D+00                             NZ=T
 IS=    11 IAt=     2 ISR=     2 T=0 IP=      2 IndIP=     26 IndIPD=      1 C=  9.419560D-01  0.000000D+00                             NZ=T
 IS=    12 IAt=     2 ISR=     3 T=0 IP=      1 IndIP=     27 IndIPD=      0 C=  8.019292D-01  0.000000D+00                             NZ=T
 IS=    13 IAt=     2 ISR=     4 T=0 IP=      1 IndIP=     28 IndIPD=      0 C=  4.011648D-01  0.000000D+00                             NZ=T
 IS=    14 IAt=     2 ISR=     5 T=0 IP=      1 IndIP=     29 IndIPD=      0 C=  2.010799D-01  0.000000D+00                             NZ=T
 IS=    15 IAt=     2 ISR=     6 T=1 IP=      1 IndIP=     30 IndIPD=      0 C=  0.000000D+00  3.057202D+00                             NZ=T
 IS=    15 IAt=     2 ISR=     6 T=1 IP=      2 IndIP=     31 IndIPD=      1 C=  0.000000D+00  3.384484D+00                             NZ=T
 IS=    15 IAt=     2 ISR=     6 T=1 IP=      3 IndIP=     32 IndIPD=      2 C=  0.000000D+00  2.947426D+00                             NZ=T
 IS=    15 IAt=     2 ISR=     6 T=1 IP=      4 IndIP=     33 IndIPD=      3 C=  0.000000D+00  1.711827D+00                             NZ=T
 IS=    16 IAt=     2 ISR=     7 T=1 IP=      1 IndIP=     34 IndIPD=      0 C=  0.000000D+00  6.436058D-01                             NZ=T
 IS=    17 IAt=     2 ISR=     8 T=1 IP=      1 IndIP=     35 IndIPD=      0 C=  0.000000D+00  1.610897D-01                             NZ=T
 IS=    18 IAt=     2 ISR=     9 T=2 IP=      1 IndIP=     36 IndIPD=      2 C=  0.000000D+00  0.000000D+00  2.264522D+00  0.000000D+00 NZ=T
 IS=    19 IAt=     3 ISR=     1 T=0 IP=      1 IndIP=     37 IndIPD=      0 C=  2.556299D-01  0.000000D+00                             NZ=T
 IS=    19 IAt=     3 ISR=     1 T=0 IP=      2 IndIP=     38 IndIPD=      1 C=  4.613600D-01  0.000000D+00                             NZ=T
 IS=    19 IAt=     3 ISR=     1 T=0 IP=      3 IndIP=     39 IndIPD=      2 C=  6.811215D-01  0.000000D+00                             NZ=T
 IS=    20 IAt=     3 ISR=     2 T=0 IP=      1 IndIP=     40 IndIPD=      0 C=  3.083545D-01  0.000000D+00                             NZ=T
 IS=    21 IAt=     3 ISR=     3 T=0 IP=      1 IndIP=     41 IndIPD=      0 C=  1.296483D-01  0.000000D+00                             NZ=T
 IS=    22 IAt=     3 ISR=     4 T=1 IP=      1 IndIP=     42 IndIPD=      0 C=  0.000000D+00  1.078456D+00                             NZ=T
 IS=    23 IAt=     4 ISR=     1 T=0 IP=      1 IndIP=     43 IndIPD=      0 C=  2.556299D-01  0.000000D+00                             NZ=T
 IS=    23 IAt=     4 ISR=     1 T=0 IP=      2 IndIP=     44 IndIPD=      1 C=  4.613600D-01  0.000000D+00                             NZ=T
 IS=    23 IAt=     4 ISR=     1 T=0 IP=      3 IndIP=     45 IndIPD=      2 C=  6.811215D-01  0.000000D+00                             NZ=T
 IS=    24 IAt=     4 ISR=     2 T=0 IP=      1 IndIP=     46 IndIPD=      0 C=  3.083545D-01  0.000000D+00                             NZ=T
 IS=    25 IAt=     4 ISR=     3 T=0 IP=      1 IndIP=     47 IndIPD=      0 C=  1.296483D-01  0.000000D+00                             NZ=T
 IS=    26 IAt=     4 ISR=     4 T=1 IP=      1 IndIP=     48 IndIPD=      0 C=  0.000000D+00  1.078456D+00                             NZ=T
 IExCor= 4639 DFT=T Ex+Corr=wB97XD ExCW=0 ScaHFX=  1.000000
 ScaDFX=  1.000000  1.000000  1.000000  1.000000 ScalE2=  1.000000  1.000000
 IRadAn=      5 IRanWt=     -1 IRanGd=            0 ICorTp=0 IEmpDi=121
 HFx  wShort=  0.000000 wLong=  0.200000 cFull=  0.222036 cShort=  0.000000 cLong=  0.777964
 DFx  wShort=  0.000000 wLong=  0.200000 cFull=  0.000000 cShort=  0.000000 cLong=  1.000000
 NAtoms=    4 NActive=    4 NUniq=    4 SFac= 1.00D+00 NAtFMM=   60 NAOKFM=F Big=F
 Integral buffers will be    131072 words long.
 Raffenetti 1 integral format.
 Two-electron integral symmetry is turned off.
 R6Disp:  Grimme-D2 Dispersion energy=       -0.0001859110 Hartrees.
 Nuclear repulsion after empirical dispersion term =       31.4313595013 Hartrees.
 Leave Link  301 at Mon Feb  5 13:19:35 2024, MaxMem=   134217728 cpu:               0.0 elap:               0.0
 (Enter /usr/remote/gaussian/g16/l302.exe)
 NPDir=0 NMtPBC=     1 NCelOv=     1 NCel=       1 NClECP=     1 NCelD=      1
         NCelK=      1 NCelE2=     1 NClLst=     1 CellRange=     0.0.
 One-electron integrals computed using PRISM.
 Entering OneElI...
 Calculate overlap and kinetic energy integrals
    NBasis =  50  MinDer = 0  MaxDer = 0
 Requested accuracy = 0.1000D-12
 PrmmSu-InSpLW:  IPartL=    0 NPrtUS=    1 NPrtUL=    1 DoSpLW=F IThBeg=    0 IThEnd=    0 NThAct=    1.
 PrSmSu:  IncTry=   512 NBBP=            351 NTPThr=   100 NPartT=    1 Incr=           3 LDynOK=F GPUOK=F.
 PrsmSu:  NPrtUS=   1 ThrOK=F IAlg=2 LenDen=           0 ISkipM=0 DoSpLW=F IThBeg=    0 IThEnd=    0.
 Prism:   IPart=     0 DynPar=F LinDyn=F Incr=           3.
 PRISM was handed   134188047 working-precision words and   351 shell-pairs
 IPart=  0 NShTot=         351 NBatch=          31 AvBLen=        11.3
 PrSmSu:  NxtVal=              4.
 *** Overlap *** 
                1             2             3             4             5 
      1  0.100000D+01
      2  0.685599D+00  0.100000D+01
      3  0.187969D+00  0.528931D+00  0.100000D+01
      4  0.969141D-01  0.300858D+00  0.857543D+00  0.100000D+01
      5  0.506009D-01  0.163841D+00  0.582216D+00  0.868364D+00  0.100000D+01
      6  0.000000D+00  0.000000D+00  0.000000D+00  0.000000D+00  0.000000D+00
      7  0.000000D+00  0.000000D+00  0.000000D+00  0.000000D+00  0.000000D+00
      8  0.000000D+00  0.000000D+00  0.000000D+00  0.000000D+00  0.000000D+00
      9  0.000000D+00  0.000000D+00  0.000000D+00  0.000000D+00  0.000000D+00
     10  0.000000D+00  0.000000D+00  0.000000D+00  0.000000D+00  0.000000D+00
     11  0.000000D+00  0.000000D+00  0.000000D+00  0.000000D+00  0.000000D+00
     12  0.000000D+00  0.000000D+00  0.000000D+00  0.000000D+00  0.000000D+00
     13  0.000000D+00  0.000000D+00  0.000000D+00  0.000000D+00  0.000000D+00
     14  0.000000D+00  0.000000D+00  0.000000D+00  0.000000D+00  0.000000D+00
     15  0.000000D+00  0.000000D+00  0.000000D+00  0.000000D+00  0.000000D+00
     16  0.000000D+00  0.000000D+00  0.000000D+00  0.000000D+00  0.000000D+00
     17  0.000000D+00  0.000000D+00  0.000000D+00  0.000000D+00  0.000000D+00
     18  0.000000D+00  0.000000D+00  0.000000D+00  0.000000D+00  0.000000D+00
     19  0.000000D+00  0.000000D+00  0.000000D+00  0.000000D+00  0.000000D+00
     20  0.000000D+00  0.000000D+00  0.633032D-02  0.182951D-01  0.187975D-01
     21  0.000000D+00  0.259231D-04  0.234673D-01  0.617642D-01  0.633318D-01
     22  0.110265D-02  0.811137D-02  0.126237D+00  0.238597D+00  0.244142D+00
     23  0.158708D-01  0.566624D-01  0.265519D+00  0.415619D+00  0.434584D+00
     24  0.323923D-01  0.105719D+00  0.387724D+00  0.586687D+00  0.668279D+00
     25 -0.982930D-03 -0.943877D-02 -0.120978D+00 -0.117786D+00 -0.536879D-01
     26  0.000000D+00  0.000000D+00  0.000000D+00  0.000000D+00  0.000000D+00
     27  0.000000D+00 -0.296460D-05 -0.379976D-04 -0.369952D-04 -0.168627D-04
     28 -0.406972D-01 -0.135468D+00 -0.417375D+00 -0.386487D+00 -0.202294D+00
     29  0.000000D+00  0.000000D+00  0.000000D+00  0.000000D+00  0.000000D+00
     30 -0.127825D-04 -0.425490D-04 -0.131092D-03 -0.121391D-03 -0.635381D-04
     31 -0.612635D-01 -0.192454D+00 -0.567438D+00 -0.637406D+00 -0.454380D+00
     32  0.000000D+00  0.000000D+00  0.000000D+00 -0.106490D-05  0.000000D+00
     33 -0.192421D-04 -0.604473D-04 -0.178225D-03 -0.200202D-03 -0.142715D-03
     34 -0.609900D-02 -0.289175D-01 -0.922483D-01 -0.429595D-01 -0.919077D-02
     35  0.663591D-05  0.314632D-04  0.100369D-03  0.467413D-04  0.999986D-05
     36  0.000000D+00  0.000000D+00  0.000000D+00  0.000000D+00  0.000000D+00
     37  0.105638D-01  0.500866D-01  0.159779D+00  0.744080D-01  0.159189D-01
     38  0.000000D+00  0.000000D+00  0.000000D+00  0.000000D+00  0.000000D+00
     39  0.214659D-02  0.132695D-01  0.152995D+00  0.254300D+00  0.240796D+00
     40  0.306530D-01  0.101360D+00  0.377362D+00  0.540733D+00  0.552907D+00
     41  0.342630D-01  0.111769D+00  0.414030D+00  0.651066D+00  0.804101D+00
     42  0.156064D-01  0.569136D-01  0.187466D+00  0.153755D+00  0.702906D-01
     43 -0.250003D-01 -0.911715D-01 -0.300306D+00 -0.246304D+00 -0.112600D+00
     44 -0.101895D-04 -0.371591D-04 -0.122397D-03 -0.100387D-03 -0.458930D-04
     45  0.214660D-02  0.132696D-01  0.152996D+00  0.254300D+00  0.240796D+00
     46  0.306530D-01  0.101360D+00  0.377363D+00  0.540733D+00  0.552907D+00
     47  0.342630D-01  0.111769D+00  0.414030D+00  0.651066D+00  0.804101D+00
     48  0.156065D-01  0.569140D-01  0.187467D+00  0.153755D+00  0.702909D-01
     49  0.250004D-01  0.911716D-01  0.300306D+00  0.246304D+00  0.112600D+00
     50 -0.112271D-04 -0.409431D-04 -0.134861D-03 -0.110609D-03 -0.505662D-04
                6             7             8             9            10 
      6  0.100000D+01
      7  0.000000D+00  0.100000D+01
      8  0.000000D+00  0.000000D+00  0.100000D+01
      9  0.626035D+00  0.000000D+00  0.000000D+00  0.100000D+01
     10  0.000000D+00  0.626035D+00  0.000000D+00  0.000000D+00  0.100000D+01
     11  0.000000D+00  0.000000D+00  0.626035D+00  0.000000D+00  0.000000D+00
     12  0.256644D+00  0.000000D+00  0.000000D+00  0.716849D+00  0.000000D+00
     13  0.000000D+00  0.256644D+00  0.000000D+00  0.000000D+00  0.716849D+00
     14  0.000000D+00  0.000000D+00  0.256644D+00  0.000000D+00  0.000000D+00
     15  0.000000D+00  0.000000D+00  0.000000D+00  0.000000D+00  0.000000D+00
     16  0.000000D+00  0.000000D+00  0.000000D+00  0.000000D+00  0.000000D+00
     17  0.000000D+00  0.000000D+00  0.000000D+00  0.000000D+00  0.000000D+00
     18  0.000000D+00  0.000000D+00  0.000000D+00  0.000000D+00  0.000000D+00
     19  0.000000D+00  0.000000D+00  0.000000D+00  0.000000D+00  0.000000D+00
     20  0.733570D-02  0.000000D+00  0.230405D-05  0.387907D-01  0.000000D+00
     21  0.283929D-01  0.000000D+00  0.891787D-05  0.127613D+00  0.000000D+00
     22  0.158271D+00  0.000000D+00  0.497111D-04  0.423945D+00  0.000000D+00
     23  0.255834D+00  0.000000D+00  0.803545D-04  0.577835D+00  0.000000D+00
     24  0.199142D+00  0.000000D+00  0.625480D-04  0.513784D+00  0.000000D+00
     25 -0.168558D+00  0.000000D+00 -0.639585D-04 -0.162694D+00  0.000000D+00
     26  0.000000D+00  0.350750D-01  0.000000D+00  0.000000D+00  0.106759D+00
     27 -0.639585D-04  0.000000D+00  0.350750D-01 -0.846322D-04  0.000000D+00
     28 -0.367066D+00  0.000000D+00 -0.162809D-03 -0.313321D+00 -0.109689D-05
     29  0.000000D+00  0.151288D+00  0.000000D+00 -0.109689D-05  0.343232D+00
     30 -0.162809D-03  0.000000D+00  0.151288D+00 -0.206215D-03  0.000000D+00
     31 -0.100721D+00  0.000000D+00 -0.952067D-04 -0.607020D-01  0.000000D+00
     32  0.000000D+00  0.202400D+00  0.000000D+00  0.000000D+00  0.529740D+00
     33 -0.952067D-04  0.000000D+00  0.202400D+00 -0.185451D-03  0.000000D+00
     34 -0.126899D+00  0.000000D+00 -0.111337D-03 -0.179680D-01  0.000000D+00
     35  0.179339D-03  0.000000D+00 -0.131393D+00  0.705861D-04  0.000000D+00
     36  0.000000D+00 -0.412688D-04  0.000000D+00  0.000000D+00 -0.510363D-04
     37  0.219795D+00  0.000000D+00  0.110304D-03  0.311216D-01  0.000000D+00
     38  0.000000D+00 -0.131393D+00  0.000000D+00  0.000000D+00 -0.162490D+00
     39 -0.102785D+00  0.164654D+00  0.671089D-04 -0.230612D+00  0.369423D+00
     40 -0.148902D+00  0.238530D+00  0.972187D-04 -0.322152D+00  0.516064D+00
     41 -0.624343D-01  0.100015D+00  0.407636D-04 -0.185592D+00  0.297305D+00
     42 -0.686962D-02  0.235827D+00  0.961168D-04  0.138271D+00  0.241514D+00
     43  0.235827D+00 -0.237432D+00 -0.153972D-03  0.241514D+00 -0.978526D-01
     44  0.961168D-04 -0.153972D-03  0.140345D+00  0.984350D-04 -0.157686D-03
     45 -0.102786D+00 -0.164654D+00  0.739426D-04 -0.230613D+00 -0.369422D+00
     46 -0.148903D+00 -0.238530D+00  0.107118D-03 -0.322154D+00 -0.516063D+00
     47 -0.624346D-01 -0.100015D+00  0.449145D-04 -0.185593D+00 -0.297305D+00
     48 -0.687064D-02 -0.235827D+00  0.105905D-03  0.138270D+00 -0.241515D+00
     49 -0.235827D+00 -0.237431D+00  0.169651D-03 -0.241515D+00 -0.978510D-01
     50  0.105905D-03  0.169651D-03  0.140345D+00  0.108459D-03  0.173742D-03
               11            12            13            14            15 
     11  0.100000D+01
     12  0.000000D+00  0.100000D+01
     13  0.000000D+00  0.000000D+00  0.100000D+01
     14  0.716849D+00  0.000000D+00  0.000000D+00  0.100000D+01
     15  0.000000D+00  0.000000D+00  0.000000D+00  0.000000D+00  0.100000D+01
     16  0.000000D+00  0.000000D+00  0.000000D+00  0.000000D+00  0.000000D+00
     17  0.000000D+00  0.000000D+00  0.000000D+00  0.000000D+00  0.000000D+00
     18  0.000000D+00  0.000000D+00  0.000000D+00  0.000000D+00  0.000000D+00
     19  0.000000D+00  0.000000D+00  0.000000D+00  0.000000D+00  0.000000D+00
     20  0.121837D-04  0.272657D-01  0.000000D+00  0.856382D-05 -0.120805D-01
     21  0.400817D-04  0.907617D-01  0.000000D+00  0.285071D-04 -0.422523D-01
     22  0.133156D-03  0.326303D+00  0.000000D+00  0.102488D-03 -0.142670D+00
     23  0.181491D-03  0.516812D+00  0.000000D+00  0.162324D-03 -0.134263D+00
     24  0.161373D-03  0.621814D+00  0.103885D-05  0.195304D-03 -0.533820D-01
     25 -0.846322D-04  0.233020D-02  0.000000D+00 -0.243348D-04  0.132317D+00
     26  0.000000D+00  0.000000D+00  0.798077D-01  0.000000D+00  0.000000D+00
     27  0.106759D+00 -0.243348D-04  0.000000D+00  0.798077D-01  0.111349D-03
     28 -0.206215D-03  0.402336D-01  0.000000D+00 -0.809759D-04  0.108940D+00
     29  0.000000D+00  0.000000D+00  0.298047D+00  0.000000D+00  0.000000D+00
     30  0.343232D+00 -0.809759D-04  0.000000D+00  0.298046D+00  0.197078D-03
     31 -0.185451D-03  0.227515D+00  0.000000D+00 -0.134710D-03 -0.275640D-01
     32  0.000000D+00  0.000000D+00  0.656408D+00  0.000000D+00  0.000000D+00
     33  0.529740D+00 -0.134710D-03  0.000000D+00  0.656408D+00  0.890200D-04
     34 -0.940410D-04  0.150745D-01  0.000000D+00 -0.223145D-04  0.109662D+00
     35 -0.162490D+00  0.000000D+00  0.000000D+00 -0.497213D-01 -0.245814D-03
     36  0.000000D+00  0.000000D+00 -0.156169D-04  0.000000D+00  0.000000D+00
     37  0.608112D-04 -0.261099D-01  0.000000D+00  0.741607D-05 -0.516783D-01
     38  0.000000D+00  0.000000D+00 -0.497213D-01  0.000000D+00  0.000000D+00
     39  0.150567D-03 -0.158985D+00  0.254683D+00  0.103802D-03 -0.164032D+00
     40  0.210334D-03 -0.299840D+00  0.480321D+00  0.195767D-03 -0.106643D+00
     41  0.121174D-03 -0.284682D+00  0.456040D+00  0.185870D-03 -0.179249D-01
     42  0.984350D-04  0.166162D+00  0.748857D-01  0.305215D-04 -0.746785D-01
     43 -0.157686D-03  0.748857D-01  0.929483D-01 -0.488932D-04  0.119629D+00
     44  0.289035D+00  0.305215D-04 -0.488932D-04  0.212910D+00  0.243037D-03
     45  0.165899D-03 -0.158986D+00 -0.254683D+00  0.114372D-03 -0.164033D+00
     46  0.231753D-03 -0.299841D+00 -0.480320D+00  0.215701D-03 -0.106643D+00
     47  0.133513D-03 -0.284683D+00 -0.456039D+00  0.204797D-03 -0.179248D-01
     48  0.108459D-03  0.166162D+00 -0.748858D-01  0.336295D-04 -0.746787D-01
     49  0.173742D-03 -0.748858D-01  0.929489D-01  0.538717D-04 -0.119629D+00
     50  0.289036D+00  0.336295D-04  0.538717D-04  0.212910D+00  0.267785D-03
               16            17            18            19            20 
     16  0.100000D+01
     17  0.000000D+00  0.100000D+01
     18  0.000000D+00  0.000000D+00  0.100000D+01
     19  0.000000D+00  0.000000D+00  0.000000D+00  0.100000D+01
     20  0.131439D-04  0.000000D+00  0.209240D-01  0.000000D+00  0.100000D+01
     21  0.459719D-04  0.000000D+00  0.731831D-01  0.000000D+00  0.681550D+00
     22  0.155230D-03  0.000000D+00  0.247112D+00  0.000000D+00  0.191929D+00
     23  0.146083D-03  0.000000D+00  0.232551D+00  0.000000D+00  0.988318D-01
     24  0.580814D-04  0.000000D+00  0.924604D-01  0.000000D+00  0.501198D-01
     25 -0.184258D-03  0.000000D+00 -0.229179D+00  0.000000D+00  0.000000D+00
     26  0.000000D+00  0.402931D-04  0.000000D+00  0.128286D+00  0.000000D+00
     27  0.128286D+00  0.000000D+00 -0.112276D-03  0.000000D+00  0.000000D+00
     28 -0.212558D-03  0.000000D+00 -0.188689D+00 -0.113063D-05  0.000000D+00
     29  0.000000D+00  0.940281D-04 -0.131554D-05  0.299369D+00  0.000000D+00
     30  0.299369D+00  0.000000D+00 -0.153293D-03  0.000000D+00  0.000000D+00
     31 -0.264036D-04  0.000000D+00  0.477423D-01  0.000000D+00  0.000000D+00
     32  0.000000D+00  0.563942D-04  0.000000D+00  0.179549D+00  0.000000D+00
     33  0.179549D+00  0.000000D+00 -0.413989D-04  0.000000D+00  0.000000D+00
     34 -0.245814D-03  0.000000D+00 -0.516783D-01  0.000000D+00  0.000000D+00
     35 -0.312353D+00  0.000000D+00  0.179406D-03  0.000000D+00  0.000000D+00
     36  0.000000D+00  0.798254D-01  0.000000D+00 -0.123178D-03  0.000000D+00
     37  0.179406D-03  0.000000D+00  0.169335D+00  0.160949D-05  0.000000D+00
     38  0.000000D+00 -0.123178D-03  0.160949D-05 -0.312353D+00  0.000000D+00
     39 -0.104032D-03  0.166652D-03 -0.124775D+00 -0.255247D+00  0.000000D+00
     40 -0.676348D-04  0.108346D-03 -0.811202D-01 -0.165945D+00  0.690349D-03
     41 -0.113683D-04  0.182111D-04 -0.136349D-01 -0.278925D-01  0.729481D-02
     42  0.189843D-05  0.176642D-03 -0.304052D+00  0.465787D-02  0.101097D-04
     43  0.176642D-03 -0.170801D-03 -0.633442D-01  0.261602D+00 -0.532602D-05
     44 -0.171797D+00  0.275206D+00  0.863496D-04  0.176642D-03  0.000000D+00
     45 -0.114626D-03 -0.183622D-03 -0.124774D+00  0.255248D+00  0.000000D+00
     46 -0.745222D-04 -0.119378D-03 -0.811194D-01  0.165945D+00  0.690340D-03
     47 -0.125259D-04 -0.200655D-04 -0.136348D-01  0.278925D-01  0.729479D-02
     48  0.209092D-05 -0.194630D-03 -0.304052D+00 -0.465603D-02  0.101094D-04
     49 -0.194630D-03 -0.188192D-03  0.633466D-01  0.261601D+00  0.532587D-05
     50 -0.171798D+00 -0.275206D+00  0.951415D-04 -0.194630D-03  0.000000D+00
               21            22            23            24            25 
     21  0.100000D+01
     22  0.544963D+00  0.100000D+01
     23  0.311467D+00  0.856809D+00  0.100000D+01
     24  0.165386D+00  0.569049D+00  0.857539D+00  0.100000D+01
     25  0.000000D+00  0.000000D+00  0.000000D+00  0.000000D+00  0.100000D+01
     26  0.000000D+00  0.000000D+00  0.000000D+00  0.000000D+00  0.000000D+00
     27  0.000000D+00  0.000000D+00  0.000000D+00  0.000000D+00  0.000000D+00
     28  0.000000D+00  0.000000D+00  0.000000D+00  0.000000D+00  0.607910D+00
     29  0.000000D+00  0.000000D+00  0.000000D+00  0.000000D+00  0.000000D+00
     30  0.000000D+00  0.000000D+00  0.000000D+00  0.000000D+00  0.000000D+00
     31  0.000000D+00  0.000000D+00  0.000000D+00  0.000000D+00  0.233626D+00
     32  0.000000D+00  0.000000D+00  0.000000D+00  0.000000D+00  0.000000D+00
     33  0.000000D+00  0.000000D+00  0.000000D+00  0.000000D+00  0.000000D+00
     34  0.000000D+00  0.000000D+00  0.000000D+00  0.000000D+00  0.000000D+00
     35  0.000000D+00  0.000000D+00  0.000000D+00  0.000000D+00  0.000000D+00
     36  0.000000D+00  0.000000D+00  0.000000D+00  0.000000D+00  0.000000D+00
     37  0.000000D+00  0.000000D+00  0.000000D+00  0.000000D+00  0.000000D+00
     38  0.000000D+00  0.000000D+00  0.000000D+00  0.000000D+00  0.000000D+00
     39  0.000000D+00  0.178281D-03  0.605433D-02  0.511635D-01 -0.147212D-03
     40  0.264647D-02  0.183549D-01  0.601882D-01  0.169333D+00 -0.152538D-01
     41  0.248520D-01  0.101864D+00  0.198922D+00  0.359079D+00 -0.352416D-01
     42  0.750245D-04  0.352251D-02  0.294178D-01  0.882833D-01 -0.344101D-02
     43 -0.395245D-04 -0.185573D-02 -0.154979D-01 -0.465095D-01  0.197734D-02
     44  0.000000D+00  0.000000D+00  0.000000D+00  0.000000D+00  0.000000D+00
     45  0.000000D+00  0.178277D-03  0.605425D-02  0.511631D-01 -0.147208D-03
     46  0.264643D-02  0.183547D-01  0.601878D-01  0.169332D+00 -0.152537D-01
     47  0.248519D-01  0.101863D+00  0.198921D+00  0.359079D+00 -0.352415D-01
     48  0.750225D-04  0.352245D-02  0.294175D-01  0.882829D-01 -0.344095D-02
     49  0.395235D-04  0.185570D-02  0.154977D-01  0.465093D-01 -0.197731D-02
     50  0.000000D+00  0.000000D+00  0.000000D+00 -0.227670D-05  0.000000D+00
               26            27            28            29            30 
     26  0.100000D+01
     27  0.000000D+00  0.100000D+01
     28  0.000000D+00  0.000000D+00  0.100000D+01
     29  0.607910D+00  0.000000D+00  0.000000D+00  0.100000D+01
     30  0.000000D+00  0.607910D+00  0.000000D+00  0.000000D+00  0.100000D+01
     31  0.000000D+00  0.000000D+00  0.693813D+00  0.000000D+00  0.000000D+00
     32  0.233626D+00  0.000000D+00  0.000000D+00  0.693813D+00  0.000000D+00
     33  0.000000D+00  0.233626D+00  0.000000D+00  0.000000D+00  0.693813D+00
     34  0.000000D+00  0.000000D+00  0.000000D+00  0.000000D+00  0.000000D+00
     35  0.000000D+00  0.000000D+00  0.000000D+00  0.000000D+00  0.000000D+00
     36  0.000000D+00  0.000000D+00  0.000000D+00  0.000000D+00  0.000000D+00
     37  0.000000D+00  0.000000D+00  0.000000D+00  0.000000D+00  0.000000D+00
     38  0.000000D+00  0.000000D+00  0.000000D+00  0.000000D+00  0.000000D+00
     39  0.775541D-04  0.000000D+00 -0.133933D-01  0.705587D-02  0.000000D+00
     40  0.803604D-02  0.000000D+00 -0.953354D-01  0.502246D-01  0.000000D+00
     41  0.185660D-01  0.000000D+00 -0.145076D+00  0.764290D-01  0.000000D+00
     42  0.197734D-02  0.000000D+00 -0.580672D-01  0.354942D-01  0.000000D+00
     43 -0.729365D-03  0.000000D+00  0.354942D-01 -0.939193D-02  0.000000D+00
     44  0.000000D+00  0.312339D-03  0.000000D+00  0.000000D+00  0.930713D-02
     45 -0.775523D-04  0.000000D+00 -0.133931D-01 -0.705578D-02  0.000000D+00
     46 -0.803597D-02  0.000000D+00 -0.953347D-01 -0.502243D-01  0.245856D-05
     47 -0.185660D-01  0.000000D+00 -0.145076D+00 -0.764289D-01  0.374131D-05
     48 -0.197731D-02  0.000000D+00 -0.580666D-01 -0.354939D-01  0.173748D-05
     49 -0.729355D-03  0.000000D+00 -0.354939D-01 -0.939190D-02  0.000000D+00
     50  0.000000D+00  0.312332D-03  0.173748D-05  0.000000D+00  0.930702D-02
               31            32            33            34            35 
     31  0.100000D+01
     32  0.000000D+00  0.100000D+01
     33  0.000000D+00  0.000000D+00  0.100000D+01
     34  0.000000D+00  0.000000D+00  0.000000D+00  0.100000D+01
     35  0.000000D+00  0.000000D+00  0.000000D+00  0.000000D+00  0.100000D+01
     36  0.000000D+00  0.000000D+00  0.000000D+00  0.000000D+00  0.000000D+00
     37  0.000000D+00  0.000000D+00  0.000000D+00  0.000000D+00  0.000000D+00
     38  0.000000D+00  0.000000D+00  0.000000D+00  0.000000D+00  0.000000D+00
     39 -0.137046D+00  0.721988D-01  0.000000D+00 -0.783075D-03  0.000000D+00
     40 -0.326904D+00  0.172220D+00  0.128289D-05 -0.164338D-01  0.000000D+00
     41 -0.387389D+00  0.204084D+00  0.152025D-05 -0.125833D-01  0.000000D+00
     42 -0.145232D+00  0.110372D+00  0.000000D+00 -0.911111D-02  0.000000D+00
     43  0.110372D+00  0.612666D-02  0.000000D+00  0.479992D-02  0.000000D+00
     44  0.000000D+00  0.000000D+00  0.642727D-01  0.000000D+00 -0.264452D-02
     45 -0.137046D+00 -0.721985D-01  0.353423D-05 -0.783059D-03  0.000000D+00
     46 -0.326903D+00 -0.172220D+00  0.843040D-05 -0.164337D-01 -0.114916D-05
     47 -0.387388D+00 -0.204084D+00  0.999022D-05 -0.125833D-01  0.000000D+00
     48 -0.145232D+00 -0.110371D+00  0.540284D-05 -0.911098D-02  0.000000D+00
     49 -0.110371D+00  0.612638D-02  0.284633D-05 -0.479985D-02  0.000000D+00
     50  0.540284D-05  0.284633D-05  0.642723D-01  0.000000D+00 -0.264448D-02
               36            37            38            39            40 
     36  0.100000D+01
     37  0.000000D+00  0.100000D+01
     38  0.000000D+00  0.000000D+00  0.100000D+01
     39  0.000000D+00  0.767015D-03 -0.111862D-02  0.100000D+01
     40  0.000000D+00  0.160968D-01 -0.234757D-01  0.706215D+00  0.100000D+01
     41  0.000000D+00  0.123252D-01 -0.179752D-01  0.373286D+00  0.788644D+00
     42  0.000000D+00  0.777522D-02 -0.138030D-01  0.000000D+00  0.000000D+00
     43  0.000000D+00 -0.688252D-02  0.536116D-02  0.000000D+00  0.000000D+00
     44  0.139319D-02  0.000000D+00  0.000000D+00  0.000000D+00  0.000000D+00
     45  0.000000D+00  0.766998D-03  0.111860D-02  0.470544D-03  0.269078D-01
     46  0.000000D+00  0.160966D-01  0.234755D-01  0.269078D-01  0.126972D+00
     47  0.000000D+00  0.123252D-01  0.179752D-01  0.112385D+00  0.293424D+00
     48  0.000000D+00  0.777510D-02  0.138028D-01  0.000000D+00  0.000000D+00
     49  0.000000D+00  0.688242D-02  0.536110D-02  0.798963D-02  0.852350D-01
     50 -0.139317D-02  0.000000D+00  0.000000D+00  0.000000D+00 -0.176873D-05
               41            42            43            44            45 
     41  0.100000D+01
     42  0.000000D+00  0.100000D+01
     43  0.000000D+00  0.000000D+00  0.100000D+01
     44  0.000000D+00  0.000000D+00  0.000000D+00  0.100000D+01
     45  0.112385D+00  0.000000D+00 -0.798963D-02  0.000000D+00  0.100000D+01
     46  0.293424D+00  0.000000D+00 -0.852350D-01  0.176873D-05  0.706215D+00
     47  0.522015D+00  0.000000D+00 -0.116241D+00  0.241215D-05  0.373286D+00
     48  0.000000D+00  0.643850D-02  0.000000D+00  0.000000D+00  0.000000D+00
     49  0.116241D+00  0.000000D+00 -0.585319D-01  0.134821D-05  0.000000D+00
     50 -0.241215D-05  0.000000D+00  0.134821D-05  0.643850D-02  0.000000D+00
               46            47            48            49            50 
     46  0.100000D+01
     47  0.788644D+00  0.100000D+01
     48  0.000000D+00  0.000000D+00  0.100000D+01
     49  0.000000D+00  0.000000D+00  0.000000D+00  0.100000D+01
     50  0.000000D+00  0.000000D+00  0.000000D+00  0.000000D+00  0.100000D+01
 *** Kinetic Energy *** 
                1             2             3             4             5 
      1  0.395623D+02
      2  0.831359D+01  0.689212D+01
      3  0.315304D+00  0.794342D+00  0.865445D+00
      4  0.659509D-01  0.195090D+00  0.422700D+00  0.344592D+00
      5  0.143702D-01  0.455722D-01  0.142684D+00  0.175296D+00  0.142747D+00
      6  0.000000D+00  0.000000D+00  0.000000D+00  0.000000D+00  0.000000D+00
      7  0.000000D+00  0.000000D+00  0.000000D+00  0.000000D+00  0.000000D+00
      8  0.000000D+00  0.000000D+00  0.000000D+00  0.000000D+00  0.000000D+00
      9  0.000000D+00  0.000000D+00  0.000000D+00  0.000000D+00  0.000000D+00
     10  0.000000D+00  0.000000D+00  0.000000D+00  0.000000D+00  0.000000D+00
     11  0.000000D+00  0.000000D+00  0.000000D+00  0.000000D+00  0.000000D+00
     12  0.000000D+00  0.000000D+00  0.000000D+00  0.000000D+00  0.000000D+00
     13  0.000000D+00  0.000000D+00  0.000000D+00  0.000000D+00  0.000000D+00
     14  0.000000D+00  0.000000D+00  0.000000D+00  0.000000D+00  0.000000D+00
     15  0.000000D+00  0.000000D+00  0.000000D+00  0.000000D+00  0.000000D+00
     16  0.000000D+00  0.000000D+00  0.000000D+00  0.000000D+00  0.000000D+00
     17  0.000000D+00  0.000000D+00  0.000000D+00  0.000000D+00  0.000000D+00
     18  0.000000D+00  0.000000D+00  0.000000D+00  0.000000D+00  0.000000D+00
     19  0.000000D+00  0.000000D+00  0.000000D+00  0.000000D+00  0.000000D+00
     20  0.000000D+00 -0.295601D-04 -0.101035D-01  0.277171D-02  0.361911D-02
     21  0.000000D+00 -0.688540D-03 -0.305698D-01  0.994480D-02  0.121223D-01
     22 -0.996805D-02 -0.414996D-01 -0.466077D-01  0.473985D-01  0.451046D-01
     23 -0.117714D-01 -0.284735D-01  0.249719D-01  0.911448D-01  0.752298D-01
     24  0.667623D-02  0.222863D-01  0.850676D-01  0.117312D+00  0.989791D-01
     25  0.129635D-01  0.579966D-01 -0.302061D-01 -0.697334D-01 -0.197119D-01
     26  0.000000D+00  0.000000D+00  0.000000D+00  0.000000D+00  0.000000D+00
     27  0.407167D-05  0.182160D-04 -0.948736D-05 -0.219024D-04 -0.619128D-05
     28  0.552004D-02 -0.159421D-01 -0.250539D+00 -0.208056D+00 -0.681163D-01
     29  0.000000D+00  0.000000D+00  0.000000D+00  0.000000D+00  0.000000D+00
     30  0.173378D-05 -0.500723D-05 -0.786911D-04 -0.653479D-04 -0.213945D-04
     31 -0.342350D-01 -0.105674D+00 -0.276084D+00 -0.252071D+00 -0.122329D+00
     32  0.000000D+00  0.000000D+00  0.000000D+00  0.000000D+00  0.000000D+00
     33 -0.107528D-04 -0.331910D-04 -0.867146D-04 -0.791723D-04 -0.384222D-04
     34  0.309367D-01  0.589007D-01 -0.108260D+00 -0.416356D-01 -0.494125D-02
     35 -0.336602D-04 -0.640859D-04  0.117791D-03  0.453009D-04  0.537625D-05
     36  0.000000D+00  0.000000D+00  0.000000D+00  0.000000D+00  0.000000D+00
     37 -0.535840D-01 -0.102019D+00  0.187512D+00  0.721149D-01  0.855850D-02
     38  0.000000D+00  0.000000D+00  0.000000D+00  0.000000D+00  0.000000D+00
     39 -0.154400D-01 -0.542330D-01 -0.287939D-01  0.639905D-01  0.473581D-01
     40  0.180388D-02  0.111461D-01  0.921843D-01  0.132614D+00  0.959487D-01
     41  0.738023D-02  0.237617D-01  0.808695D-01  0.110083D+00  0.102107D+00
     42 -0.204875D-01 -0.290451D-01  0.129580D+00  0.942823D-01  0.254342D-01
     43  0.328195D-01  0.465281D-01 -0.207577D+00 -0.151033D+00 -0.407437D-01
     44  0.133764D-04  0.189637D-04 -0.846031D-04 -0.615573D-04 -0.166061D-04
     45 -0.154400D-01 -0.542332D-01 -0.287937D-01  0.639907D-01  0.473581D-01
     46  0.180391D-02  0.111462D-01  0.921845D-01  0.132614D+00  0.959488D-01
     47  0.738023D-02  0.237617D-01  0.808696D-01  0.110083D+00  0.102107D+00
     48 -0.204876D-01 -0.290451D-01  0.129580D+00  0.942828D-01  0.254343D-01
     49 -0.328194D-01 -0.465278D-01  0.207577D+00  0.151033D+00  0.407436D-01
     50  0.147385D-04  0.208946D-04 -0.932183D-04 -0.678256D-04 -0.182971D-04
                6             7             8             9            10 
      6  0.311783D+01
      7  0.000000D+00  0.311783D+01
      8  0.000000D+00  0.000000D+00  0.311783D+01
      9  0.689955D+00  0.000000D+00  0.000000D+00  0.722189D+00
     10  0.000000D+00  0.689955D+00  0.000000D+00  0.000000D+00  0.722189D+00
     11  0.000000D+00  0.000000D+00  0.689955D+00  0.000000D+00  0.000000D+00
     12  0.115984D+00  0.000000D+00  0.000000D+00  0.267377D+00  0.000000D+00
     13  0.000000D+00  0.115984D+00  0.000000D+00  0.000000D+00  0.267377D+00
     14  0.000000D+00  0.000000D+00  0.115984D+00  0.000000D+00  0.000000D+00
     15  0.000000D+00  0.000000D+00  0.000000D+00  0.000000D+00  0.000000D+00
     16  0.000000D+00  0.000000D+00  0.000000D+00  0.000000D+00  0.000000D+00
     17  0.000000D+00  0.000000D+00  0.000000D+00  0.000000D+00  0.000000D+00
     18  0.000000D+00  0.000000D+00  0.000000D+00  0.000000D+00  0.000000D+00
     19  0.000000D+00  0.000000D+00  0.000000D+00  0.000000D+00  0.000000D+00
     20 -0.186417D-01  0.000000D+00 -0.585515D-05  0.229763D-01  0.000000D+00
     21 -0.537374D-01  0.000000D+00 -0.168783D-04  0.764710D-01  0.000000D+00
     22 -0.232847D-01  0.000000D+00 -0.731345D-05  0.258189D+00  0.000000D+00
     23  0.143003D+00  0.000000D+00  0.449156D-04  0.326997D+00  0.000000D+00
     24  0.104701D+00  0.000000D+00  0.328852D-04  0.222853D+00  0.000000D+00
     25 -0.104963D+00  0.000000D+00 -0.267565D-04 -0.232247D+00  0.000000D+00
     26  0.000000D+00 -0.197750D-01  0.000000D+00  0.000000D+00  0.650820D-01
     27 -0.267565D-04  0.000000D+00 -0.197750D-01 -0.933876D-04  0.000000D+00
     28 -0.533196D+00 -0.102022D-05 -0.191801D-03 -0.426174D+00 -0.104284D-05
     29 -0.102022D-05  0.774638D-01  0.000000D+00 -0.104284D-05  0.198028D+00
     30 -0.191801D-03  0.000000D+00  0.774637D-01 -0.196054D-03  0.000000D+00
     31 -0.140611D+00  0.000000D+00 -0.767154D-04 -0.154278D+00  0.000000D+00
     32  0.000000D+00  0.103637D+00  0.000000D+00  0.000000D+00  0.224137D+00
     33 -0.767154D-04  0.000000D+00  0.103637D+00 -0.118855D-03  0.000000D+00
     34 -0.288594D+00  0.000000D+00 -0.144458D-03 -0.713665D-01  0.000000D+00
     35  0.345069D-03  0.000000D+00 -0.989197D-01  0.132511D-03  0.000000D+00
     36  0.000000D+00 -0.310695D-04  0.000000D+00  0.000000D+00 -0.548614D-04
     37  0.499859D+00  0.116563D-05  0.188069D-03  0.123610D+00  0.000000D+00
     38  0.183547D-05 -0.989198D-01  0.000000D+00  0.000000D+00 -0.174669D+00
     39 -0.128521D-01  0.205881D-01  0.839119D-05 -0.159092D+00  0.254853D+00
     40 -0.103135D+00  0.165215D+00  0.673376D-04 -0.180671D+00  0.289422D+00
     41 -0.241657D-01  0.387116D-01  0.157779D-04 -0.611072D-01  0.978893D-01
     42 -0.126270D+00  0.314757D+00  0.128287D-03  0.281464D-01  0.263460D+00
     43  0.314757D+00 -0.434001D+00 -0.205506D-03  0.263460D+00 -0.229433D+00
     44  0.128287D-03 -0.205506D-03  0.702163D-01  0.107379D-03 -0.172014D-03
     45 -0.128524D-01 -0.205885D-01  0.924585D-05 -0.159093D+00 -0.254853D+00
     46 -0.103136D+00 -0.165215D+00  0.741945D-04 -0.180672D+00 -0.289422D+00
     47 -0.241658D-01 -0.387115D-01  0.173845D-04 -0.611075D-01 -0.978891D-01
     48 -0.126272D+00 -0.314759D+00  0.141351D-03  0.281454D-01 -0.263461D+00
     49 -0.314759D+00 -0.434000D+00  0.226433D-03 -0.263461D+00 -0.229431D+00
     50  0.141351D-03  0.226433D-03  0.702167D-01  0.118314D-03  0.189530D-03
               11            12            13            14            15 
     11  0.722189D+00
     12  0.000000D+00  0.251421D+00
     13  0.000000D+00  0.000000D+00  0.251421D+00
     14  0.267377D+00  0.000000D+00  0.000000D+00  0.251421D+00
     15  0.000000D+00  0.000000D+00  0.000000D+00  0.000000D+00  0.280000D+01
     16  0.000000D+00  0.000000D+00  0.000000D+00  0.000000D+00  0.000000D+00
     17  0.000000D+00  0.000000D+00  0.000000D+00  0.000000D+00  0.000000D+00
     18  0.000000D+00  0.000000D+00  0.000000D+00  0.000000D+00  0.000000D+00
     19  0.000000D+00  0.000000D+00  0.000000D+00  0.000000D+00  0.000000D+00
     20  0.721656D-05  0.108650D-01  0.000000D+00  0.341257D-05  0.953358D-02
     21  0.240186D-04  0.358537D-01  0.000000D+00  0.112612D-04  0.107009D-01
     22  0.810940D-04  0.122450D+00  0.000000D+00  0.384602D-04 -0.144835D+00
     23  0.102706D-03  0.177485D+00  0.000000D+00  0.557459D-04 -0.157527D+00
     24  0.699956D-04  0.175557D+00  0.000000D+00  0.551405D-04 -0.438170D-01
     25 -0.933876D-04 -0.138141D-01  0.000000D+00 -0.139179D-04  0.320322D+00
     26  0.000000D+00  0.000000D+00  0.304981D-01  0.000000D+00  0.000000D+00
     27  0.650820D-01 -0.139179D-04  0.000000D+00  0.304981D-01  0.152887D-03
     28 -0.196054D-03 -0.295168D-01  0.000000D+00 -0.419846D-04  0.309302D+00
     29  0.000000D+00  0.000000D+00  0.104155D+00  0.000000D+00  0.000000D+00
     30  0.198028D+00 -0.419846D-04  0.000000D+00  0.104155D+00  0.291155D-03
     31 -0.118855D-03  0.837113D-02  0.000000D+00 -0.545778D-04 -0.403686D-04
     32  0.000000D+00  0.000000D+00  0.182137D+00  0.000000D+00  0.000000D+00
     33  0.224137D+00 -0.545778D-04  0.000000D+00  0.182137D+00  0.774951D-04
     34 -0.117438D-03  0.593316D-02  0.000000D+00 -0.133222D-04  0.292641D+00
     35 -0.174669D+00  0.231204D-05  0.000000D+00 -0.279142D-01 -0.649945D-03
     36  0.000000D+00  0.000000D+00 -0.876751D-05  0.000000D+00  0.000000D+00
     37  0.936860D-04 -0.102765D-01  0.000000D+00  0.553977D-05 -0.368360D+00
     38  0.000000D+00  0.000000D+00 -0.279142D-01  0.000000D+00 -0.123082D-05
     39  0.103872D-03 -0.619055D-01  0.991680D-01  0.404183D-04 -0.209554D+00
     40  0.117961D-03 -0.997765D-01  0.159835D+00  0.651445D-04 -0.122954D+00
     41  0.398972D-04 -0.659901D-01  0.105711D+00  0.430852D-04 -0.101470D-01
     42  0.107379D-03  0.542468D-01  0.415924D-01  0.169520D-04 -0.243469D+00
     43 -0.172014D-03  0.415924D-01  0.135829D-01 -0.271558D-04  0.390019D+00
     44  0.192611D+00  0.169520D-04 -0.271558D-04  0.802108D-01  0.430501D-03
     45  0.114449D-03 -0.619057D-01 -0.991678D-01  0.445341D-04 -0.209554D+00
     46  0.129973D-03 -0.997769D-01 -0.159834D+00  0.717780D-04 -0.122954D+00
     47  0.439598D-04 -0.659904D-01 -0.105711D+00  0.474725D-04 -0.101470D-01
     48  0.118314D-03  0.542467D-01 -0.415924D-01  0.186782D-04 -0.243470D+00
     49  0.189530D-03 -0.415924D-01  0.135832D-01  0.299210D-04 -0.390019D+00
     50  0.192611D+00  0.186782D-04  0.299210D-04  0.802109D-01  0.474339D-03
               16            17            18            19            20 
     16  0.280000D+01
     17  0.000000D+00  0.280000D+01
     18  0.000000D+00  0.000000D+00  0.280000D+01
     19  0.000000D+00  0.000000D+00  0.000000D+00  0.280000D+01
     20 -0.103728D-04  0.000000D+00 -0.165126D-01  0.000000D+00  0.769783D+02
     21 -0.116430D-04  0.000000D+00 -0.185346D-01  0.000000D+00  0.161469D+02
     22  0.157585D-03  0.000000D+00  0.250861D+00  0.000000D+00  0.652538D+00
     23  0.171395D-03  0.000000D+00  0.272845D+00  0.000000D+00  0.136023D+00
     24  0.476743D-04  0.000000D+00  0.758933D-01  0.000000D+00  0.276794D-01
     25 -0.378704D-03  0.000000D+00 -0.554814D+00 -0.201438D-05  0.000000D+00
     26  0.000000D+00  0.301828D-04 -0.124801D-05  0.960966D-01  0.000000D+00
     27  0.960965D-01  0.000000D+00 -0.204443D-03  0.000000D+00  0.000000D+00
     28 -0.448541D-03  0.000000D+00 -0.535727D+00 -0.238585D-05  0.000000D+00
     29  0.000000D+00  0.112010D-03 -0.208662D-05  0.356619D+00  0.000000D+00
     30  0.356619D+00  0.000000D+00 -0.280275D-03  0.000000D+00  0.000000D+00
     31 -0.447052D-04  0.000000D+00  0.698925D-04  0.000000D+00  0.000000D+00
     32  0.000000D+00  0.447491D-04  0.000000D+00  0.142473D+00  0.000000D+00
     33  0.142473D+00  0.000000D+00 -0.447272D-04  0.000000D+00  0.000000D+00
     34 -0.649945D-03  0.000000D+00 -0.368360D+00 -0.123082D-05  0.000000D+00
     35 -0.689401D+00 -0.128537D-05  0.642438D-03  0.000000D+00  0.000000D+00
     36 -0.128537D-05  0.799679D-01  0.000000D+00 -0.241650D-03  0.000000D+00
     37  0.642438D-03  0.000000D+00  0.717987D+00  0.470259D-05  0.000000D+00
     38  0.000000D+00 -0.241650D-03  0.470259D-05 -0.689402D+00  0.000000D+00
     39 -0.132903D-03  0.212900D-03 -0.159401D+00 -0.326082D+00  0.000000D+00
     40 -0.779797D-04  0.124918D-03 -0.935277D-01 -0.191326D+00 -0.143550D-02
     41 -0.643541D-05  0.103091D-04 -0.771854D-02 -0.157895D-01  0.122719D-04
     42 -0.855615D-04  0.388202D-03 -0.530770D+00 -0.209929D+00 -0.140011D-03
     43  0.388202D-03 -0.465098D-03  0.809552D-01  0.712354D+00  0.737607D-04
     44 -0.240117D+00  0.384649D+00  0.189768D-03  0.388202D-03  0.000000D+00
     45 -0.146437D-03 -0.234580D-03 -0.159400D+00  0.326084D+00  0.000000D+00
     46 -0.859206D-04 -0.137638D-03 -0.935268D-01  0.191327D+00 -0.143548D-02
     47 -0.709074D-05 -0.113588D-04 -0.771846D-02  0.157896D-01  0.122659D-04
     48 -0.942761D-04 -0.427734D-03 -0.530770D+00  0.209933D+00 -0.140007D-03
     49 -0.427734D-03 -0.512457D-03 -0.809498D-01  0.712354D+00 -0.737589D-04
     50 -0.240118D+00 -0.384649D+00  0.209090D-03 -0.427734D-03  0.000000D+00
               21            22            23            24            25 
     21  0.133136D+02
     22  0.164775D+01  0.175547D+01
     23  0.407249D+00  0.855047D+00  0.697121D+00
     24  0.894136D-01  0.272770D+00  0.340483D+00  0.277568D+00
     25  0.000000D+00  0.000000D+00  0.000000D+00  0.000000D+00  0.605853D+01
     26  0.000000D+00  0.000000D+00  0.000000D+00  0.000000D+00  0.000000D+00
     27  0.000000D+00  0.000000D+00  0.000000D+00  0.000000D+00  0.000000D+00
     28  0.000000D+00  0.000000D+00  0.000000D+00  0.000000D+00  0.123718D+01
     29  0.000000D+00  0.000000D+00  0.000000D+00  0.000000D+00  0.000000D+00
     30  0.000000D+00  0.000000D+00  0.000000D+00  0.000000D+00  0.000000D+00
     31  0.000000D+00  0.000000D+00  0.000000D+00  0.000000D+00  0.184984D+00
     32  0.000000D+00  0.000000D+00  0.000000D+00  0.000000D+00  0.000000D+00
     33  0.000000D+00  0.000000D+00  0.000000D+00  0.000000D+00  0.000000D+00
     34  0.000000D+00  0.000000D+00  0.000000D+00  0.000000D+00  0.000000D+00
     35  0.000000D+00  0.000000D+00  0.000000D+00  0.000000D+00  0.000000D+00
     36  0.000000D+00  0.000000D+00  0.000000D+00  0.000000D+00  0.000000D+00
     37  0.000000D+00  0.000000D+00  0.000000D+00  0.000000D+00  0.000000D+00
     38  0.000000D+00  0.000000D+00  0.000000D+00  0.000000D+00  0.000000D+00
     39 -0.732365D-05 -0.145339D-02 -0.136579D-01 -0.137860D-01  0.139026D-02
     40 -0.500599D-02 -0.207653D-01 -0.297567D-01 -0.863724D-02  0.122056D-01
     41  0.131302D-03  0.241171D-02  0.924480D-02  0.256294D-01 -0.746272D-02
     42 -0.827157D-03 -0.147209D-01 -0.305635D-01  0.845333D-02  0.150401D-01
     43  0.435763D-03  0.775528D-02  0.161015D-01 -0.445339D-02 -0.882696D-02
     44  0.000000D+00  0.000000D+00  0.000000D+00  0.000000D+00  0.000000D+00
     45 -0.732339D-05 -0.145336D-02 -0.136578D-01 -0.137861D-01  0.139023D-02
     46 -0.500595D-02 -0.207652D-01 -0.297567D-01 -0.863738D-02  0.122056D-01
     47  0.131281D-03  0.241163D-02  0.924466D-02  0.256292D-01 -0.746268D-02
     48 -0.827138D-03 -0.147207D-01 -0.305633D-01  0.845314D-02  0.150399D-01
     49 -0.435754D-03 -0.775518D-02 -0.161014D-01  0.445329D-02  0.882685D-02
     50  0.000000D+00  0.000000D+00  0.000000D+00  0.000000D+00  0.000000D+00
               26            27            28            29            30 
     26  0.605853D+01
     27  0.000000D+00  0.605853D+01
     28  0.000000D+00  0.000000D+00  0.132338D+01
     29  0.123718D+01  0.000000D+00  0.000000D+00  0.132338D+01
     30  0.000000D+00  0.123718D+01  0.000000D+00  0.000000D+00  0.132338D+01
     31  0.000000D+00  0.000000D+00  0.455829D+00  0.000000D+00  0.000000D+00
     32  0.184984D+00  0.000000D+00  0.000000D+00  0.455829D+00  0.000000D+00
     33  0.000000D+00  0.184984D+00  0.000000D+00  0.000000D+00  0.455829D+00
     34  0.000000D+00  0.000000D+00  0.000000D+00  0.000000D+00  0.000000D+00
     35  0.000000D+00  0.000000D+00  0.000000D+00  0.000000D+00  0.000000D+00
     36  0.000000D+00  0.000000D+00  0.000000D+00  0.000000D+00  0.000000D+00
     37  0.000000D+00  0.000000D+00  0.000000D+00  0.000000D+00  0.000000D+00
     38  0.000000D+00  0.000000D+00  0.000000D+00  0.000000D+00  0.000000D+00
     39 -0.732415D-03  0.000000D+00  0.279549D-01 -0.147272D-01  0.000000D+00
     40 -0.643019D-02  0.000000D+00  0.167856D-01 -0.884300D-02  0.000000D+00
     41  0.393152D-02  0.000000D+00 -0.312331D-01  0.164542D-01  0.000000D+00
     42 -0.882696D-02  0.000000D+00  0.356558D-01 -0.254196D-01  0.000000D+00
     43  0.293513D-02  0.000000D+00 -0.254196D-01  0.796361D-03  0.000000D+00
     44  0.000000D+00 -0.171509D-02  0.000000D+00  0.000000D+00 -0.125952D-01
     45  0.732400D-03  0.000000D+00  0.279547D-01  0.147271D-01  0.000000D+00
     46  0.643018D-02  0.000000D+00  0.167858D-01  0.884311D-02  0.000000D+00
     47 -0.393150D-02  0.000000D+00 -0.312330D-01 -0.164542D-01  0.000000D+00
     48  0.882685D-02  0.000000D+00  0.356559D-01  0.254197D-01 -0.124433D-05
     49  0.293511D-02  0.000000D+00  0.254197D-01  0.796482D-03  0.000000D+00
     50  0.000000D+00 -0.171506D-02 -0.124433D-05  0.000000D+00 -0.125951D-01
               31            32            33            34            35 
     31  0.436961D+00
     32  0.000000D+00  0.436961D+00
     33  0.000000D+00  0.000000D+00  0.436961D+00
     34  0.000000D+00  0.000000D+00  0.000000D+00  0.420000D+01
     35  0.000000D+00  0.000000D+00  0.000000D+00  0.000000D+00  0.420000D+01
     36  0.000000D+00  0.000000D+00  0.000000D+00  0.000000D+00  0.000000D+00
     37  0.000000D+00  0.000000D+00  0.000000D+00  0.000000D+00  0.000000D+00
     38  0.000000D+00  0.000000D+00  0.000000D+00  0.000000D+00  0.000000D+00
     39 -0.115165D-01  0.606714D-02  0.000000D+00  0.472052D-02  0.000000D+00
     40 -0.630364D-01  0.332089D-01  0.000000D+00  0.196188D-02  0.000000D+00
     41 -0.783084D-01  0.412545D-01  0.000000D+00 -0.506952D-02  0.000000D+00
     42 -0.775145D-01  0.448952D-01  0.000000D+00  0.201157D-01  0.000000D+00
     43  0.448952D-01 -0.159470D-01  0.000000D+00 -0.105974D-01  0.000000D+00
     44  0.000000D+00  0.000000D+00  0.770473D-02  0.000000D+00  0.880281D-02
     45 -0.115162D-01 -0.606699D-02  0.000000D+00  0.472044D-02  0.000000D+00
     46 -0.630359D-01 -0.332086D-01  0.162561D-05  0.196195D-02  0.000000D+00
     47 -0.783082D-01 -0.412544D-01  0.201946D-05 -0.506951D-02  0.000000D+00
     48 -0.775140D-01 -0.448950D-01  0.219767D-05  0.201156D-01  0.153500D-05
     49 -0.448950D-01 -0.159470D-01  0.115778D-05  0.105973D-01  0.000000D+00
     50  0.219767D-05  0.115778D-05  0.770458D-02  0.000000D+00  0.880270D-02
               36            37            38            39            40 
     36  0.420000D+01
     37  0.000000D+00  0.420000D+01
     38  0.000000D+00  0.000000D+00  0.420000D+01
     39  0.000000D+00 -0.462370D-02  0.674324D-02  0.231491D+01
     40  0.000000D+00 -0.192164D-02  0.280253D-02  0.551404D+00  0.490846D+00
     41  0.000000D+00  0.496555D-02 -0.724179D-02  0.106595D+00  0.185449D+00
     42  0.000000D+00 -0.158784D-01  0.313577D-01  0.000000D+00  0.000000D+00
     43  0.000000D+00  0.176401D-01 -0.101602D-01  0.000000D+00  0.000000D+00
     44 -0.463750D-02  0.000000D+00  0.000000D+00  0.000000D+00  0.000000D+00
     45  0.000000D+00 -0.462362D-02 -0.674314D-02 -0.322188D-02 -0.244565D-01
     46  0.000000D+00 -0.192170D-02 -0.280263D-02 -0.244565D-01 -0.234248D-01
     47  0.000000D+00  0.496553D-02  0.724177D-02  0.640416D-02  0.235194D-01
     48  0.000000D+00 -0.158783D-01 -0.313575D-01  0.000000D+00  0.000000D+00
     49  0.000000D+00 -0.176399D-01 -0.101602D-01 -0.269059D-01 -0.169978D-01
     50  0.463745D-02  0.000000D+00  0.000000D+00  0.000000D+00  0.000000D+00
               41            42            43            44            45 
     41  0.154609D+00
     42  0.000000D+00  0.200000D+01
     43  0.000000D+00  0.000000D+00  0.200000D+01
     44  0.000000D+00  0.000000D+00  0.000000D+00  0.200000D+01
     45  0.640416D-02  0.000000D+00  0.269059D-01  0.000000D+00  0.231491D+01
     46  0.235194D-01  0.000000D+00  0.169978D-01  0.000000D+00  0.551404D+00
     47  0.457313D-01  0.000000D+00 -0.286205D-01  0.000000D+00  0.106595D+00
     48  0.000000D+00 -0.131111D-01  0.000000D+00  0.000000D+00  0.000000D+00
     49  0.286205D-01  0.000000D+00  0.672161D-01 -0.166689D-05  0.000000D+00
     50  0.000000D+00  0.000000D+00 -0.166689D-05 -0.131111D-01  0.000000D+00
               46            47            48            49            50 
     46  0.490846D+00
     47  0.185449D+00  0.154609D+00
     48  0.000000D+00  0.000000D+00  0.200000D+01
     49  0.000000D+00  0.000000D+00  0.000000D+00  0.200000D+01
     50  0.000000D+00  0.000000D+00  0.000000D+00  0.000000D+00  0.200000D+01
 Entering OneElI...
 Calculate potential energy integrals
    NBasis =  50  MinDer = 0  MaxDer = 0
 Requested accuracy = 0.1000D-12
 PrmmSu-InSpLW:  IPartL=    0 NPrtUS=    1 NPrtUL=    1 DoSpLW=F IThBeg=    0 IThEnd=    0 NThAct=    1.
 PrSmSu:  IncTry=   512 NBBP=           1400 NTPThr=   100 NPartT=    1 Incr=          14 LDynOK=F GPUOK=F.
 PrsmSu:  NPrtUS=   1 ThrOK=F IAlg=2 LenDen=           0 ISkipM=0 DoSpLW=F IThBeg=    0 IThEnd=    0.
 Prism:   IPart=     0 DynPar=F LinDyn=F Incr=          14.
 PRISM was handed   134188316 working-precision words and   350 shell-pairs
 IPart=  0 NShTot=        1400 NBatch=         350 AvBLen=         4.0
 PrSmSu:  NxtVal=             15.
 ***** Potential Energy ***** 
                1             2             3             4             5 
      1  0.574864D+02
      2  0.279142D+02  0.255233D+02
      3  0.683478D+01  0.102687D+02  0.117609D+02
      4  0.348933D+01  0.562858D+01  0.904766D+01  0.893156D+01
      5  0.181479D+01  0.301756D+01  0.582034D+01  0.696608D+01  0.668194D+01
      6  0.347511D-01  0.226228D+00  0.768230D+00  0.727532D+00  0.510234D+00
      7  0.000000D+00  0.000000D+00  0.157046D-05  0.149265D-05  0.104958D-05
      8  0.172715D-04  0.112436D-03  0.381265D-03  0.359713D-03  0.251495D-03
      9  0.443987D-02  0.625252D-01  0.731138D+00  0.116633D+01  0.110361D+01
     10  0.000000D+00  0.000000D+00  0.150733D-05  0.243492D-05  0.231894D-05
     11  0.220663D-05  0.310752D-04  0.359455D-03  0.562736D-03  0.526170D-03
     12  0.122145D-02  0.192644D-01  0.346194D+00  0.757931D+00  0.940702D+00
     13  0.000000D+00  0.000000D+00  0.000000D+00  0.159696D-05  0.199592D-05
     14  0.000000D+00  0.957441D-05  0.168798D-03  0.359351D-03  0.438924D-03
     15 -0.453788D-03 -0.205509D-01 -0.319241D+00 -0.418543D+00 -0.335646D+00
     16  0.000000D+00  0.137124D-04  0.214971D-03  0.286017D-03  0.231522D-03
     17  0.000000D+00  0.000000D+00 -0.390218D-05 -0.499281D-05 -0.394040D-05
     18  0.514693D-03  0.233093D-01  0.364875D+00  0.484307D+00  0.391445D+00
     19  0.000000D+00  0.000000D+00  0.164027D-05  0.213730D-05  0.170806D-05
     20  0.000000D+00  0.272915D-04  0.387313D+00  0.112935D+01  0.116041D+01
     21  0.000000D+00  0.413926D-03  0.652175D+00  0.177483D+01  0.181776D+01
     22  0.362929D-01  0.126621D+00  0.170939D+01  0.328642D+01  0.328225D+01
     23  0.564688D+00  0.103111D+01  0.311721D+01  0.455157D+01  0.443006D+01
     24  0.116185D+01  0.195793D+01  0.419406D+01  0.545404D+01  0.541912D+01
     25 -0.310965D-01 -0.142032D+00 -0.160106D+01 -0.160540D+01 -0.805417D+00
     26  0.000000D+00  0.000000D+00 -0.265662D-05 -0.264599D-05 -0.130975D-05
     27 -0.976443D-05 -0.445253D-04 -0.500025D-03 -0.498713D-03 -0.247521D-03
     28 -0.145623D+01 -0.251849D+01 -0.487102D+01 -0.422562D+01 -0.235186D+01
     29 -0.243261D-05 -0.420190D-05 -0.804644D-05 -0.690362D-05 -0.377275D-05
     30 -0.457269D-03 -0.789467D-03 -0.151413D-02 -0.130255D-02 -0.714606D-03
     31 -0.220386D+01 -0.359527D+01 -0.600024D+01 -0.570868D+01 -0.384483D+01
     32 -0.368156D-05 -0.599955D-05 -0.987978D-05 -0.923437D-05 -0.606832D-05
     33 -0.692028D-03 -0.112664D-02 -0.185144D-02 -0.173404D-02 -0.114272D-02
     34 -0.208168D+00 -0.496246D+00 -0.118837D+01 -0.651200D+00 -0.243365D+00
     35  0.226436D-03  0.538907D-03  0.128114D-02  0.694194D-03  0.254362D-03
     36  0.000000D+00  0.000000D+00  0.000000D+00  0.000000D+00  0.000000D+00
     37  0.360556D+00  0.859432D+00  0.205559D+01  0.112290D+01  0.416598D+00
     38  0.120459D-05  0.286717D-05  0.680167D-05  0.367153D-05  0.133532D-05
     39  0.712885D-01  0.196193D+00  0.125808D+01  0.186367D+01  0.166320D+01
     40  0.109611D+01  0.184084D+01  0.358051D+01  0.411007D+01  0.362926D+01
     41  0.122772D+01  0.204832D+01  0.401514D+01  0.492358D+01  0.491868D+01
     42  0.550243D+00  0.100128D+01  0.192192D+01  0.157558D+01  0.902696D+00
     43 -0.880673D+00 -0.159277D+01 -0.295651D+01 -0.233794D+01 -0.127340D+01
     44 -0.358698D-03 -0.645669D-03 -0.116692D-02 -0.895302D-03 -0.465767D-03
     45  0.712889D-01  0.196194D+00  0.125809D+01  0.186368D+01  0.166320D+01
     46  0.109611D+01  0.184084D+01  0.358051D+01  0.411008D+01  0.362926D+01
     47  0.122773D+01  0.204832D+01  0.401514D+01  0.492358D+01  0.491868D+01
     48  0.550247D+00  0.100129D+01  0.192193D+01  0.157559D+01  0.902698D+00
     49  0.880674D+00  0.159278D+01  0.295650D+01  0.233794D+01  0.127340D+01
     50 -0.395250D-03 -0.711776D-03 -0.128962D-02 -0.992334D-03 -0.518616D-03
                6             7             8             9            10 
      6  0.122602D+02
      7  0.000000D+00  0.118607D+02
      8  0.117589D-03 -0.216877D-05  0.117561D+02
      9  0.639643D+01  0.000000D+00  0.130294D-03  0.848348D+01
     10  0.000000D+00  0.595479D+01 -0.230850D-05  0.227473D-05  0.740120D+01
     11  0.130294D-03 -0.230850D-05  0.584353D+01  0.321686D-03 -0.500160D-05
     12  0.250590D+01  0.000000D+00  0.626206D-04  0.539290D+01  0.155201D-05
     13  0.000000D+00  0.229404D+01 -0.107496D-05  0.155201D-05  0.463314D+01
     14  0.626206D-04 -0.107496D-05  0.224223D+01  0.226717D-03 -0.326638D-05
     15 -0.440111D+00  0.000000D+00  0.214553D-03 -0.605432D+00 -0.124771D-05
     16  0.461522D-03  0.158539D-05  0.513435D+00  0.665000D-03  0.267697D-05
     17  0.158539D-05  0.303841D-03  0.105778D-05  0.267697D-05  0.373992D-03
     18  0.838675D+00  0.000000D+00  0.788406D-04  0.117761D+01  0.000000D+00
     19  0.186936D-05  0.437054D+00  0.158539D-05  0.274764D-05  0.460048D+00
     20  0.446609D+00  0.000000D+00  0.140276D-03  0.240000D+01  0.400970D-05
     21  0.777505D+00  0.129926D-05  0.244251D-03  0.370572D+01  0.619225D-05
     22  0.216500D+01  0.363217D-05  0.682524D-03  0.602167D+01  0.100890D-04
     23  0.311872D+01  0.529004D-05  0.995388D-03  0.656784D+01  0.111022D-04
     24  0.241036D+01  0.418882D-05  0.798917D-03  0.519165D+01  0.900775D-05
     25 -0.225802D+01 -0.448847D-05 -0.843393D-03 -0.231756D+01 -0.601828D-05
     26 -0.445283D-05  0.419850D+00  0.000000D+00 -0.593808D-05  0.127391D+01
     27 -0.837654D-03  0.000000D+00  0.419407D+00 -0.111828D-02  0.000000D+00
     28 -0.439304D+01 -0.100492D-04 -0.189056D-02 -0.354376D+01 -0.110511D-04
     29 -0.983057D-05  0.153073D+01  0.000000D+00 -0.106996D-04  0.296047D+01
     30 -0.184842D-02  0.000000D+00  0.152307D+01 -0.201426D-02  0.000000D+00
     31 -0.145488D+01 -0.583151D-05 -0.112393D-02 -0.109693D+01 -0.860267D-05
     32 -0.552118D-05  0.188839D+01  0.000000D+00 -0.795114D-05  0.376541D+01
     33 -0.104229D-02  0.000000D+00  0.186328D+01 -0.150111D-02 -0.128051D-05
     34 -0.162643D+01 -0.275301D-05 -0.128636D-02 -0.429328D+00  0.000000D+00
     35  0.220390D-02  0.000000D+00 -0.142191D+01  0.972595D-03  0.000000D+00
     36  0.000000D+00 -0.444790D-03 -0.236092D-05  0.000000D+00 -0.516960D-03
     37  0.281456D+01  0.949087D-05  0.133862D-02  0.736637D+00  0.679074D-05
     38  0.117144D-04 -0.142521D+01  0.000000D+00  0.515179D-05 -0.166834D+01
     39 -0.841051D+00  0.137988D+01  0.572551D-03 -0.161264D+01  0.263258D+01
     40 -0.115336D+01  0.213471D+01  0.959761D-03 -0.190386D+01  0.344738D+01
     41 -0.245281D+00  0.881069D+00  0.510426D-03 -0.553010D+00  0.186035D+01
     42 -0.144193D+00  0.224376D+01  0.949817D-03  0.696506D+00  0.204286D+01
     43  0.208627D+01 -0.231362D+01 -0.147001D-02  0.183238D+01 -0.116277D+01
     44  0.836461D-03 -0.139125D-02  0.117217D+01  0.714971D-03 -0.117816D-02
     45 -0.841056D+00 -0.137988D+01  0.629820D-03 -0.161265D+01 -0.263257D+01
     46 -0.115337D+01 -0.213471D+01  0.104836D-02 -0.190387D+01 -0.344737D+01
     47 -0.245283D+00 -0.881066D+00  0.546993D-03 -0.553015D+00 -0.186034D+01
     48 -0.144203D+00 -0.224377D+01  0.104294D-02  0.696498D+00 -0.204287D+01
     49 -0.208628D+01 -0.231361D+01  0.161468D-02 -0.183238D+01 -0.116276D+01
     50  0.923051D-03  0.153591D-02  0.117217D+01  0.791023D-03  0.130456D-02
               11            12            13            14            15 
     11  0.716014D+01
     12  0.226717D-03  0.571902D+01
     13 -0.326638D-05  0.145391D-05  0.498452D+01
     14  0.447571D+01  0.220149D-03 -0.289133D-05  0.484517D+01
     15  0.194569D-03 -0.312423D+00  0.000000D+00  0.849170D-04  0.888515D+01
     16  0.589017D+00  0.346166D-03  0.141162D-05  0.284995D+00 -0.261465D-04
     17  0.122121D-05  0.141162D-05  0.184061D-03  0.000000D+00  0.000000D+00
     18  0.145504D-03  0.609140D+00  0.000000D+00  0.810524D-04 -0.386213D+00
     19  0.267697D-05  0.145105D-05  0.216987D+00  0.141162D-05 -0.174828D-05
     20  0.753821D-03  0.168479D+01  0.281480D-05  0.529180D-03 -0.742219D+00
     21  0.116410D-02  0.261501D+01  0.436963D-05  0.821462D-03 -0.120386D+01
     22  0.189577D-02  0.439426D+01  0.735981D-05  0.138299D-02 -0.212894D+01
     23  0.208390D-02  0.518334D+01  0.874435D-05  0.164115D-02 -0.187440D+01
     24  0.169650D-02  0.493575D+01  0.850466D-05  0.159692D-02 -0.964222D+00
     25 -0.113058D-02 -0.184279D+00 -0.184934D-05 -0.347242D-03  0.188858D+01
     26  0.000000D+00 -0.179721D-05  0.918199D+00  0.000000D+00  0.313005D-05
     27  0.127294D+01 -0.339313D-03  0.000000D+00  0.917575D+00  0.145364D-02
     28 -0.207059D-02 -0.202268D+00 -0.429441D-05 -0.802457D-03  0.151212D+01
     29  0.000000D+00 -0.406733D-05  0.231465D+01  0.000000D+00  0.243742D-05
     30  0.294726D+01 -0.767469D-03  0.000000D+00  0.230614D+01  0.208646D-02
     31 -0.163168D-02  0.871407D+00 -0.520307D-05 -0.979228D-03  0.847489D-01
     32 -0.128052D-05 -0.469207D-05  0.379043D+01 -0.101005D-05  0.000000D+00
     33  0.370382D+01 -0.885642D-03 -0.101005D-05  0.374182D+01  0.970407D-03
     34 -0.103619D-02  0.525921D-01  0.000000D+00 -0.279744D-03  0.125007D+01
     35 -0.166408D+01  0.109252D-03  0.000000D+00 -0.552196D+00 -0.275607D-02
     36 -0.274084D-05  0.000000D+00 -0.169033D-03  0.000000D+00  0.000000D+00
     37  0.758929D-03 -0.962439D-01  0.166779D-05  0.144593D-03 -0.827843D+00
     38  0.000000D+00  0.000000D+00 -0.554204D+00  0.000000D+00 -0.269597D-05
     39  0.108820D-02 -0.102865D+01  0.167656D+01  0.692176D-03 -0.127877D+01
     40  0.152832D-02 -0.151002D+01  0.267395D+01  0.116819D-02 -0.858571D+00
     41  0.105321D-02 -0.825833D+00  0.214599D+01  0.111937D-02 -0.295984D+00
     42  0.866004D-03  0.804546D+00  0.768911D+00  0.328152D-03 -0.700315D+00
     43 -0.128268D-02  0.645641D+00  0.168876D+00 -0.453503D-03  0.101008D+01
     44  0.188281D+01  0.239890D-03 -0.392597D-03  0.124173D+01  0.184532D-02
     45  0.119746D-02 -0.102865D+01 -0.167655D+01  0.761758D-03 -0.127877D+01
     46  0.167139D-02 -0.151002D+01 -0.267394D+01  0.127917D-02 -0.858570D+00
     47  0.113042D-02 -0.825839D+00 -0.214598D+01  0.120843D-02 -0.295983D+00
     48  0.950790D-03  0.804543D+00 -0.768911D+00  0.360064D-03 -0.700316D+00
     49  0.140908D-02 -0.645642D+00  0.168881D+00  0.498028D-03 -0.101007D+01
     50  0.188281D+01  0.266687D-03  0.437123D-03  0.124173D+01  0.203229D-02
               16            17            18            19            20 
     16  0.903268D+01
     17  0.000000D+00  0.864010D+01
     18  0.339557D-03  0.344123D-05  0.947487D+01
     19 -0.384756D-05  0.540660D-04  0.121201D-05  0.921813D+01
     20  0.807569D-03  0.000000D+00  0.128556D+01  0.429560D-05  0.101652D+03
     21  0.131006D-02  0.000000D+00  0.208514D+01  0.696869D-05  0.482187D+02
     22  0.232228D-02  0.000000D+00  0.368613D+01  0.123570D-04  0.120523D+02
     23  0.205066D-02  0.000000D+00  0.323080D+01  0.109108D-04  0.613889D+01
     24  0.102992D-02 -0.137543D-05  0.160371D+01  0.553267D-05  0.309952D+01
     25 -0.255820D-02  0.000000D+00 -0.327003D+01 -0.136133D-04 -0.240815D-01
     26  0.000000D+00  0.499520D-03 -0.107363D-04  0.158641D+01  0.000000D+00
     27  0.158516D+01  0.265520D-05 -0.151956D-02  0.000000D+00 -0.681764D-05
     28 -0.258384D-02  0.000000D+00 -0.258701D+01 -0.137528D-04 -0.282590D-02
     29  0.000000D+00  0.944805D-03 -0.142379D-04  0.295388D+01  0.000000D+00
     30  0.294744D+01  0.498730D-05 -0.173295D-02  0.000000D+00  0.000000D+00
     31 -0.541919D-03  0.302161D-05 -0.107977D-02 -0.307557D-05 -0.726592D-03
     32  0.000000D+00  0.583218D-03 -0.589859D-05  0.167895D+01  0.000000D+00
     33  0.169262D+01  0.293792D-05 -0.542042D-03  0.000000D+00  0.000000D+00
     34 -0.275431D-02  0.000000D+00 -0.827024D+00 -0.283069D-05 -0.896689D-04
     35 -0.333760D+01 -0.690119D-05  0.217891D-02  0.000000D+00  0.000000D+00
     36 -0.682269D-05  0.771393D+00  0.000000D+00 -0.128488D-02  0.000000D+00
     37  0.220099D-02  0.000000D+00  0.220216D+01  0.185488D-04  0.150909D-03
     38  0.000000D+00 -0.129997D-02  0.185008D-04 -0.334347D+01  0.000000D+00
     39 -0.812033D-03  0.133242D-02 -0.100450D+01 -0.196562D+01  0.000000D+00
     40 -0.471102D-03  0.931483D-03 -0.656786D+00 -0.115570D+01  0.421276D-01
     41  0.391528D-04  0.196774D-03  0.349493D-01 -0.134300D+00  0.449903D+00
     42 -0.212038D-04  0.150335D-02 -0.234856D+01 -0.714148D-01  0.580352D-03
     43  0.137415D-02 -0.146267D-02 -0.280243D+00  0.208025D+01 -0.305774D-03
     44 -0.120816D+01  0.201778D+01  0.690907D-03  0.131764D-02  0.000000D+00
     45 -0.893616D-03 -0.146603D-02 -0.100450D+01  0.196563D+01  0.000000D+00
     46 -0.519069D-03 -0.102046D-02 -0.656779D+00  0.115570D+01  0.421270D-01
     47  0.335782D-04 -0.216599D-03  0.349504D-01  0.134303D+00  0.449901D+00
     48 -0.241747D-04 -0.165116D-02 -0.234856D+01  0.714298D-01  0.580335D-03
     49 -0.151063D-02 -0.160738D-02  0.280262D+00  0.208024D+01  0.305765D-03
     50 -0.120816D+01 -0.201777D+01  0.763012D-03 -0.145412D-02  0.000000D+00
               21            22            23            24            25 
     21  0.422131D+02
     22  0.168335D+02  0.169877D+02
     23  0.919018D+01  0.126121D+02  0.118748D+02
     24  0.478317D+01  0.778796D+01  0.894206D+01  0.853135D+01
     25 -0.161008D+00 -0.537638D+00 -0.526862D+00 -0.372137D+00  0.171942D+02
     26  0.000000D+00  0.000000D+00  0.000000D+00  0.000000D+00  0.000000D+00
     27 -0.455825D-04 -0.152209D-03 -0.149157D-03 -0.105350D-03  0.567425D-04
     28 -0.422239D-01 -0.493576D+00 -0.929629D+00 -0.101982D+01  0.788719D+01
     29  0.000000D+00  0.000000D+00 -0.136020D-05 -0.148303D-05  0.000000D+00
     30 -0.119539D-04 -0.139727D-03 -0.262730D-03 -0.286822D-03  0.645813D-04
     31 -0.121554D-01 -0.221197D+00 -0.655290D+00 -0.109535D+01  0.282006D+01
     32  0.000000D+00  0.000000D+00  0.000000D+00 -0.153484D-05  0.000000D+00
     33 -0.344128D-05 -0.626023D-04 -0.183768D-03 -0.298180D-03  0.304806D-04
     34 -0.503776D-02 -0.102521D+00 -0.175944D+00 -0.166295D+00  0.270947D+00
     35  0.511047D-05  0.103999D-03  0.178430D-03  0.168527D-03 -0.163354D-03
     36  0.000000D+00  0.000000D+00  0.000000D+00  0.000000D+00  0.000000D+00
     37  0.847836D-02  0.172537D+00  0.296072D+00  0.279756D+00 -0.467803D+00
     38  0.000000D+00  0.000000D+00  0.000000D+00  0.000000D+00  0.000000D+00
     39  0.510848D-05  0.188765D-02  0.527181D-01  0.385022D+00 -0.163351D-02
     40  0.724124D-01  0.231041D+00  0.606064D+00  0.137530D+01 -0.192512D+00
     41  0.710529D+00  0.136024D+01  0.201896D+01  0.285741D+01 -0.489048D+00
     42  0.164317D-02  0.386781D-01  0.276572D+00  0.749041D+00 -0.393943D-01
     43 -0.867899D-03 -0.222005D-01 -0.176632D+00 -0.516125D+00  0.240653D-01
     44  0.000000D+00 -0.122266D-05 -0.190907D-04 -0.718427D-04  0.112103D-05
     45  0.510828D-05  0.188761D-02  0.527175D-01  0.385019D+00 -0.163348D-02
     46  0.724115D-01  0.231039D+00  0.606060D+00  0.137530D+01 -0.192511D+00
     47  0.710526D+00  0.136024D+01  0.201896D+01  0.285740D+01 -0.489046D+00
     48  0.164312D-02  0.386774D-01  0.276569D+00  0.749038D+00 -0.393936D-01
     49  0.867876D-03  0.222001D-01  0.176631D+00  0.516123D+00 -0.240649D-01
     50  0.000000D+00 -0.214400D-05 -0.264212D-04 -0.932629D-04  0.211977D-05
               26            27            28            29            30 
     26  0.170059D+02
     27  0.000000D+00  0.170032D+02
     28  0.000000D+00  0.645813D-04  0.984216D+01
     29  0.767290D+01  0.000000D+00  0.112315D-05  0.911909D+01
     30  0.000000D+00  0.766978D+01  0.217411D-03  0.000000D+00  0.910796D+01
     31  0.000000D+00  0.304806D-04  0.608852D+01  0.000000D+00  0.190480D-03
     32  0.271891D+01  0.000000D+00  0.000000D+00  0.544990D+01  0.000000D+00
     33  0.000000D+00  0.271743D+01  0.190480D-03  0.000000D+00  0.543830D+01
     34  0.000000D+00 -0.103886D-03  0.476320D+00  0.000000D+00 -0.135620D-03
     35  0.000000D+00 -0.372269D+00 -0.316010D-03  0.000000D+00 -0.562362D+00
     36 -0.104619D-03  0.000000D+00  0.000000D+00 -0.157090D-03  0.000000D+00
     37  0.000000D+00 -0.293677D-04 -0.820922D+00  0.000000D+00 -0.794602D-04
     38 -0.373760D+00  0.000000D+00 -0.164044D-05 -0.566451D+00  0.000000D+00
     39  0.769525D-03  0.000000D+00 -0.118853D+00  0.570037D-01 -0.280480D-05
     40  0.912444D-01 -0.502623D-05 -0.974000D+00  0.414527D+00 -0.528231D-04
     41  0.213076D+00 -0.227409D-04 -0.155053D+01  0.595020D+00 -0.117006D-03
     42  0.204832D-01  0.000000D+00 -0.561032D+00  0.294225D+00 -0.214379D-04
     43 -0.800824D-02  0.000000D+00  0.406717D+00 -0.983165D-01  0.223157D-04
     44  0.000000D+00  0.320600D-02  0.442311D-04 -0.118386D-04  0.752042D-01
     45 -0.769508D-03  0.000000D+00 -0.118851D+00 -0.570031D-01  0.000000D+00
     46 -0.912437D-01 -0.123937D-05 -0.973994D+00 -0.414525D+00 -0.356192D-04
     47 -0.213076D+00 -0.138977D-04 -0.155052D+01 -0.595020D+00 -0.923106D-04
     48 -0.204828D-01  0.000000D+00 -0.561027D+00 -0.294223D+00 -0.922697D-05
     49 -0.800813D-02  0.000000D+00 -0.406714D+00 -0.983162D-01 -0.151142D-04
     50  0.000000D+00  0.320593D-02  0.611105D-04  0.190401D-04  0.752033D-01
               31            32            33            34            35 
     31  0.699405D+01
     32  0.136375D-05  0.604886D+01
     33  0.269594D-03  0.000000D+00  0.601754D+01
     34  0.275407D+00  0.000000D+00 -0.650549D-04  0.105504D+02
     35 -0.190723D-03  0.000000D+00 -0.299005D+00  0.498137D-05  0.106926D+02
     36  0.000000D+00 -0.831648D-04  0.000000D+00  0.000000D+00  0.000000D+00
     37 -0.474146D+00  0.000000D+00 -0.537793D-04 -0.223105D+00  0.152973D-03
     38  0.000000D+00 -0.301879D+00  0.000000D+00  0.000000D+00  0.000000D+00
     39 -0.100913D+01  0.506849D+00 -0.100280D-04 -0.819735D-02  0.000000D+00
     40 -0.251218D+01  0.111492D+01 -0.105800D-03 -0.192248D+00  0.334629D-04
     41 -0.297107D+01  0.116713D+01 -0.196390D-03 -0.202374D+00  0.768397D-04
     42 -0.128057D+01  0.808604D+00 -0.431054D-04 -0.975800D-01  0.111140D-04
     43  0.116798D+01 -0.974908D-01  0.529631D-04  0.594503D-01 -0.103352D-04
     44  0.160329D-03 -0.528001D-04  0.417331D+00  0.411127D-05 -0.254942D-01
     45 -0.100913D+01 -0.506847D+00  0.110074D-04 -0.819720D-02  0.000000D+00
     46 -0.251217D+01 -0.111492D+01 -0.595277D-04 -0.192247D+00  0.238504D-04
     47 -0.297106D+01 -0.116713D+01 -0.147951D-03 -0.202374D+00  0.690727D-04
     48 -0.128057D+01 -0.808603D+00 -0.954660D-05 -0.975787D-01  0.558096D-05
     49 -0.116798D+01 -0.974927D-01 -0.315967D-04 -0.594496D-01  0.692863D-05
     50  0.208803D-03  0.741666D-04  0.417329D+00  0.745888D-05 -0.254938D-01
[...]
  22        3S          0.00000   0.00000   0.00267   0.00000  -0.00939
  23        4S          0.00000   0.00000   0.00289   0.00000  -0.01217
  24        5S         -0.00000  -0.00000  -0.00028  -0.00000  -0.00187
  25        6PX         0.00000   0.00000   0.00463   0.00000   0.00000
  26        6PY         0.00000   0.00000   0.00000   0.00583   0.00000
  27        6PZ         0.00333   0.00000   0.00000   0.00000   0.00000
  28        7PX         0.00000   0.00000   0.00276   0.00000   0.00000
  29        7PY         0.00000   0.00000   0.00000   0.01166   0.00000
  30        7PZ         0.00663   0.00000   0.00000   0.00000   0.00000
  31        8PX         0.00000   0.00000  -0.00024   0.00000   0.00000
  32        8PY         0.00000   0.00000   0.00000   0.00502   0.00000
  33        8PZ         0.00216   0.00000   0.00000   0.00000   0.00000
  34        9D 0        0.00000   0.00000   0.00004   0.00000   0.00000
  35        9D+1        0.00062   0.00000   0.00000  -0.00000   0.00000
  36        9D-1        0.00000  -0.00000   0.00000   0.00000   0.00000
  37        9D+2        0.00000   0.00000   0.00024   0.00000  -0.00000
  38        9D-2       -0.00000   0.00000   0.00000   0.00048   0.00000
  39 3   H  1S          0.00000   0.00000   0.00047   0.00252   0.00000
  40        2S          0.00000   0.00000   0.00042   0.00364   0.00000
  41        3S          0.00000   0.00000   0.00003   0.00052   0.00001
  42        4PX         0.00000   0.00000  -0.00007  -0.00000  -0.00000
  43        4PY         0.00000   0.00000  -0.00003   0.00015   0.00000
  44        4PZ        -0.00009   0.00000   0.00000   0.00000   0.00000
  45 4   H  1S          0.00000   0.00000   0.00047   0.00252   0.00000
  46        2S          0.00000   0.00000   0.00042   0.00364   0.00000
  47        3S          0.00000   0.00000   0.00003   0.00052   0.00001
  48        4PX         0.00000   0.00000  -0.00007  -0.00000  -0.00000
  49        4PY         0.00000   0.00000  -0.00003   0.00015   0.00000
  50        4PZ        -0.00009  -0.00000   0.00000   0.00000   0.00000
                          21        22        23        24        25
  21        2S          0.94360
  22        3S         -0.07711   0.27280
  23        4S         -0.08561   0.31150   0.49621
  24        5S         -0.01636   0.09791   0.21020   0.18274
  25        6PX         0.00000   0.00000   0.00000   0.00000   0.35256
  26        6PY         0.00000   0.00000   0.00000   0.00000   0.00000
  27        6PZ         0.00000   0.00000   0.00000   0.00000   0.00000
  28        7PX         0.00000   0.00000   0.00000   0.00000   0.15520
  29        7PY         0.00000   0.00000   0.00000   0.00000   0.00000
  30        7PZ         0.00000   0.00000   0.00000   0.00000   0.00000
  31        8PX         0.00000   0.00000   0.00000   0.00000   0.02422
  32        8PY         0.00000   0.00000   0.00000   0.00000   0.00000
  33        8PZ         0.00000   0.00000   0.00000   0.00000   0.00000
  34        9D 0        0.00000   0.00000   0.00000   0.00000   0.00000
  35        9D+1        0.00000   0.00000   0.00000   0.00000   0.00000
  36        9D-1        0.00000   0.00000   0.00000   0.00000   0.00000
  37        9D+2        0.00000  -0.00000   0.00000  -0.00000   0.00000
  38        9D-2        0.00000   0.00000   0.00000   0.00000   0.00000
  39 3   H  1S          0.00000  -0.00000  -0.00007  -0.00008  -0.00000
  40        2S          0.00002  -0.00023  -0.00079   0.00006  -0.00045
  41        3S          0.00007  -0.00036  -0.00054   0.00215  -0.00069
  42        4PX        -0.00000   0.00000  -0.00000  -0.00021   0.00002
  43        4PY         0.00000  -0.00000  -0.00002  -0.00003  -0.00000
  44        4PZ         0.00000  -0.00000  -0.00000   0.00000  -0.00000
  45 4   H  1S          0.00000  -0.00000  -0.00006  -0.00008  -0.00000
  46        2S          0.00002  -0.00023  -0.00079   0.00006  -0.00045
  47        3S          0.00007  -0.00036  -0.00054   0.00215  -0.00069
  48        4PX        -0.00000   0.00000  -0.00000  -0.00021   0.00002
  49        4PY         0.00000  -0.00000  -0.00002  -0.00003  -0.00000
  50        4PZ         0.00000  -0.00000  -0.00000   0.00000  -0.00000
                          26        27        28        29        30
  26        6PY         0.45638
  27        6PZ         0.00000   0.27933
  28        7PX         0.00000   0.00000   0.18491
  29        7PY         0.23626   0.00000   0.00000   0.33103
  30        7PZ         0.00000   0.14493   0.00000   0.00000   0.20348
  31        8PX         0.00000   0.00000   0.05198   0.00000   0.00000
  32        8PY         0.06008   0.00000   0.00000   0.15242   0.00000
  33        8PZ         0.00000   0.03031   0.00000   0.00000   0.07682
  34        9D 0        0.00000   0.00000   0.00000   0.00000   0.00000
  35        9D+1        0.00000   0.00000   0.00000   0.00000   0.00000
  36        9D-1        0.00000   0.00000   0.00000   0.00000   0.00000
  37        9D+2        0.00000   0.00000   0.00000   0.00000   0.00000
  38        9D-2        0.00000   0.00000   0.00000   0.00000   0.00000
  39 3   H  1S         -0.00000   0.00000  -0.00018  -0.00023   0.00000
  40        2S         -0.00096   0.00000  -0.00199  -0.00525   0.00000
  41        3S         -0.00249   0.00000  -0.00206  -0.00884   0.00000
  42        4PX         0.00000   0.00000   0.00021   0.00002   0.00000
  43        4PY        -0.00000   0.00000  -0.00004  -0.00001   0.00000
  44        4PZ        -0.00000   0.00000  -0.00000  -0.00000   0.00004
  45 4   H  1S         -0.00000   0.00000  -0.00018  -0.00023   0.00000
  46        2S         -0.00096   0.00000  -0.00199  -0.00525   0.00000
  47        3S         -0.00249  -0.00000  -0.00206  -0.00884  -0.00000
  48        4PX         0.00000   0.00000   0.00021   0.00002   0.00000
  49        4PY        -0.00000   0.00000  -0.00004  -0.00001   0.00000
  50        4PZ        -0.00000   0.00000  -0.00000  -0.00000   0.00004
                          31        32        33        34        35
  31        8PX         0.03351
  32        8PY         0.00000   0.15126
  33        8PZ         0.00000   0.00000   0.06025
  34        9D 0        0.00000   0.00000   0.00000   0.00039
  35        9D+1        0.00000   0.00000   0.00000   0.00000   0.00165
  36        9D-1        0.00000   0.00000   0.00000   0.00000   0.00000
  37        9D+2        0.00000   0.00000   0.00000  -0.00000   0.00000
  38        9D-2        0.00000   0.00000   0.00000   0.00000   0.00000
  39 3   H  1S         -0.00120  -0.00270   0.00000  -0.00000   0.00000
  40        2S         -0.00416  -0.01628   0.00000  -0.00001   0.00000
  41        3S         -0.00241  -0.01842   0.00000  -0.00001   0.00000
  42        4PX         0.00017  -0.00010   0.00000   0.00000  -0.00000
  43        4PY        -0.00012   0.00001   0.00000   0.00000   0.00000
  44        4PZ        -0.00000  -0.00000   0.00016  -0.00000   0.00000
  45 4   H  1S         -0.00120  -0.00270   0.00000  -0.00000   0.00000
  46        2S         -0.00416  -0.01628  -0.00000  -0.00001   0.00000
  47        3S         -0.00241  -0.01842  -0.00000  -0.00001   0.00000
  48        4PX         0.00017  -0.00010   0.00000   0.00000   0.00000
  49        4PY        -0.00012   0.00001   0.00000   0.00000   0.00000
  50        4PZ        -0.00000  -0.00000   0.00016  -0.00000   0.00000
                          36        37        38        39        40
  36        9D-1        0.00000
  37        9D+2        0.00000   0.00124
  38        9D-2        0.00000   0.00000   0.00124
  39 3   H  1S         -0.00000  -0.00000   0.00000   0.07897
  40        2S          0.00000  -0.00002   0.00001   0.08619   0.19943
  41        3S          0.00000  -0.00001  -0.00005   0.02171   0.08584
  42        4PX        -0.00000   0.00000   0.00000   0.00000   0.00000
  43        4PY        -0.00000  -0.00000   0.00000   0.00000   0.00000
  44        4PZ        -0.00000  -0.00000   0.00000   0.00000   0.00000
  45 4   H  1S         -0.00000  -0.00000   0.00000  -0.00001  -0.00118
  46        2S          0.00000  -0.00002   0.00001  -0.00118  -0.01239
  47        3S          0.00000  -0.00001  -0.00005  -0.00478  -0.02585
  48        4PX        -0.00000   0.00000   0.00000  -0.00000  -0.00000
  49        4PY        -0.00000  -0.00000   0.00000   0.00001  -0.00001
  50        4PZ         0.00000  -0.00000   0.00000  -0.00000  -0.00000
                          41        42        43        44        45
  41        3S          0.07636
  42        4PX         0.00000   0.00042
  43        4PY         0.00000   0.00000   0.00104
  44        4PZ         0.00000   0.00000   0.00000   0.00011
  45 4   H  1S         -0.00478   0.00000   0.00001   0.00000   0.07897
  46        2S         -0.02585   0.00000  -0.00001   0.00000   0.08619
  47        3S         -0.03701   0.00000  -0.00026   0.00000   0.02171
  48        4PX        -0.00000  -0.00000  -0.00000   0.00000   0.00000
  49        4PY        -0.00026   0.00000   0.00002   0.00000   0.00000
  50        4PZ        -0.00000   0.00000   0.00000   0.00000   0.00000
                          46        47        48        49        50
  46        2S          0.19943
  47        3S          0.08584   0.07636
  48        4PX         0.00000   0.00000   0.00042
  49        4PY         0.00000   0.00000   0.00000   0.00104
  50        4PZ         0.00000   0.00000   0.00000   0.00000   0.00011
     Gross orbital populations:
                           1
   1 1   C  1S          0.85584
   2        2S          1.11640
   3        3S          0.56761
   4        4S          0.56570
   5        5S          0.13299
   6        6PX         0.49874
   7        6PY         0.47705
   8        6PZ         0.28147
   9        7PX         0.30507
  10        7PY         0.46542
  11        7PZ         0.33467
  12        8PX         0.02865
  13        8PY         0.07823
  14        8PZ         0.09399
  15        9D 0        0.00355
  16        9D+1        0.01499
  17        9D-1        0.00000
  18        9D+2        0.01572
  19        9D-2        0.04203
  20 2   O  1S          0.79319
  21        2S          1.17737
  22        3S          0.60935
  23        4S          0.92202
  24        5S          0.36158
  25        6PX         0.62832
  26        6PY         0.76410
  27        6PZ         0.48858
  28        7PX         0.54874
  29        7PY         0.73887
  30        7PZ         0.52480
  31        8PX         0.12977
  32        8PY         0.31416
  33        8PZ         0.25070
  34        9D 0        0.00205
  35        9D+1        0.00671
  36        9D-1        0.00000
  37        9D+2        0.00664
  38        9D-2        0.00457
  39 3   H  1S          0.27141
  40        2S          0.51542
  41        3S          0.11861
  42        4PX         0.00563
  43        4PY         0.01207
  44        4PZ         0.00203
  45 4   H  1S          0.27141
  46        2S          0.51542
  47        3S          0.11860
  48        4PX         0.00563
  49        4PY         0.01207
  50        4PZ         0.00203
          Condensed to atoms (all electrons):
               1          2          3          4
     1  C    4.628532   0.523780   0.362913   0.362911
     2  O    0.523780   7.883836  -0.068042  -0.068042
     3  H    0.362913  -0.068042   0.743819  -0.113523
     4  H    0.362911  -0.068042  -0.113523   0.743819
 Mulliken charges:
               1
     1  C    0.121864
     2  O   -0.271532
     3  H    0.074834
     4  H    0.074835
 Sum of Mulliken charges =   0.00000
 Mulliken charges with hydrogens summed into heavy atoms:
               1
     1  C    0.271532
     2  O   -0.271532
 Electronic spatial extent (au):  <R**2>=             70.4517
 Charge=              0.0000 electrons
 Dipole moment (field-independent basis, Debye):
    X=             -2.4218    Y=             -0.0000    Z=             -0.0003  Tot=              2.4218
 Quadrupole moment (field-independent basis, Debye-Ang):
   XX=            -14.1364   YY=            -11.5220   ZZ=            -11.5526
   XY=              0.0000   XZ=             -0.0004   YZ=             -0.0000
 Traceless Quadrupole moment (field-independent basis, Debye-Ang):
   XX=             -1.7327   YY=              0.8816   ZZ=              0.8511
   XY=              0.0000   XZ=             -0.0004   YZ=             -0.0000
 Octapole moment (field-independent basis, Debye-Ang**2):
  XXX=            -15.0322  YYY=             -0.0000  ZZZ=              0.0022  XYY=             -4.9642
  XXY=             -0.0000  XXZ=              0.0009  XZZ=             -3.8422  YZZ=             -0.0000
  YYZ=              0.0012  XYZ=              0.0000
 Hexadecapole moment (field-independent basis, Debye-Ang**3):
 XXXX=            -56.4220 YYYY=            -18.3231 ZZZZ=             -9.9790 XXXY=             -0.0000
 XXXZ=             -0.0021 YYYX=             -0.0000 YYYZ=              0.0001 ZZZX=             -0.0016
 ZZZY=              0.0001 XXYY=            -12.3899 XXZZ=            -10.4376 YYZZ=             -5.0010
 XXYZ=              0.0000 YYXZ=             -0.0010 ZZXY=             -0.0000
 N-N= 3.143135950128D+01 E-N=-3.318791644184D+02  KE= 1.140580155250D+02
 Orbital energies and kinetic energies (alpha):
                                 1                 2
   1         O               -19.269760         29.107955
   2         O               -10.387002         15.960225
   3         O                -1.173872          2.761283
   4         O                -0.733790          1.619505
   5         O                -0.592750          1.281858
   6         O                -0.546936          2.360244
   7         O                -0.495533          1.839688
   8         O                -0.358395          2.098250
   9         V                 0.024530          1.718457
  10         V                 0.134662          0.680636
  11         V                 0.193977          0.641012
  12         V                 0.195505          0.709872
  13         V                 0.289516          0.527482
  14         V                 0.293431          0.836780
  15         V                 0.348106          0.690161
  16         V                 0.492661          1.438708
  17         V                 0.520649          1.141305
  18         V                 0.522990          1.535041
  19         V                 0.599924          1.551682
  20         V                 0.612334          2.853654
  21         V                 0.704880          1.536220
  22         V                 0.807595          1.646748
  23         V                 1.240310          2.022298
  24         V                 1.335943          3.127080
  25         V                 1.369712          2.774262
  26         V                 1.373914          3.776437
  27         V                 1.400025          3.162996
  28         V                 1.571803          3.145762
  29         V                 1.724553          2.945514
  30         V                 1.786968          3.312230
  31         V                 1.805231          3.211621
  32         V                 2.023597          3.003299
  33         V                 2.157883          3.157084
  34         V                 2.163425          3.136575
  35         V                 2.309727          3.706884
  36         V                 2.506336          4.485644
  37         V                 2.533609          4.065073
  38         V                 2.702431          6.695904
  39         V                 2.715024          4.453981
  40         V                 2.760754          5.900148
  41         V                 2.778834          4.251279
  42         V                 2.895719          5.765618
  43         V                 3.051259          6.477193
  44         V                 3.071426          5.184268
  45         V                 3.262564          5.778155
  46         V                 3.278384          5.053282
  47         V                 3.609800          5.289813
  48         V                 4.251950          7.296856
  49         V                22.017900         55.506483
  50         V                43.418830        108.371820
 Total kinetic energy from orbitals= 1.140580155250D+02
 Leave Link  601 at Mon Feb  5 13:19:54 2024, MaxMem=   134217728 cpu:               0.0 elap:               0.0
 (Enter /usr/remote/gaussian/g16/l9999.exe)
 Electronic transition elements 
                 1             2             3             4             5 
      1  -0.114384D+03 -0.114359D+03 -0.114298D+03 -0.114210D+03 -0.114208D+03
      2   0.000000D+00  0.000000D+00  0.000000D+00  0.000000D+00  0.000000D+00
      3   0.000000D+00  0.290520D-03  0.000000D+00  0.000000D+00  0.000000D+00
      4   0.000000D+00  0.000000D+00  0.000000D+00  0.000000D+00  0.000000D+00
      5   0.000000D+00  0.000000D+00  0.000000D+00  0.000000D+00  0.000000D+00
      6   0.000000D+00 -0.224852D-04  0.000000D+00  0.000000D+00  0.000000D+00
      7   0.000000D+00  0.000000D+00  0.000000D+00  0.000000D+00  0.000000D+00
      8   0.000000D+00 -0.123164D+01  0.000000D+00  0.000000D+00  0.000000D+00
      9   0.000000D+00 -0.247411D-05  0.000000D+00  0.000000D+00  0.000000D+00
     10   0.000000D+00 -0.230067D-03  0.000000D+00  0.000000D+00  0.000000D+00
     11   0.000000D+00  0.000000D+00  0.000000D+00  0.000000D+00  0.000000D+00
     12   0.000000D+00 -0.408948D-05  0.000000D+00  0.000000D+00  0.000000D+00
     13   0.000000D+00  0.408937D-05  0.000000D+00  0.000000D+00  0.000000D+00
     14   0.000000D+00  0.664073D-04  0.000000D+00  0.000000D+00  0.000000D+00
     15   0.000000D+00  0.000000D+00  0.000000D+00  0.000000D+00  0.000000D+00
     16   0.000000D+00 -0.985248D-01  0.000000D+00  0.000000D+00  0.000000D+00
                 6             7             8             9            10 
      1  -0.114195D+03 -0.114166D+03 -0.114163D+03 -0.114153D+03 -0.114150D+03
      2   0.000000D+00 -0.728886D-03  0.000000D+00 -0.129101D-04  0.335324D+00
      3  -0.733673D+00  0.116138D-05  0.000000D+00  0.453652D+00  0.221233D-04
      4   0.152253D-04  0.563366D-01  0.000000D+00 -0.944366D-05  0.665745D-03
      5   0.000000D+00  0.227985D-03  0.000000D+00  0.455590D-05 -0.108061D+00
      6   0.218672D+00  0.000000D+00  0.000000D+00 -0.167118D+00 -0.814615D-05
      7  -0.453831D-05 -0.357099D-01  0.000000D+00  0.347828D-05 -0.248178D-03
      8  -0.448656D-04  0.000000D+00  0.000000D+00  0.410860D-03  0.000000D+00
      9  -0.156115D-04  0.159583D+01  0.000000D+00 -0.222954D-04  0.178282D-02
     10  -0.751995D+00 -0.331096D-04  0.000000D+00 -0.107103D+01 -0.513225D-04
     11   0.000000D+00  0.816614D-03  0.000000D+00  0.290506D-04 -0.620345D+00
     12   0.112552D-05  0.197330D-03  0.000000D+00  0.149222D-04 -0.269274D+00
     13   0.000000D+00 -0.434589D-03  0.000000D+00 -0.868527D-05  0.202530D+00
     14  -0.626881D+00 -0.745302D-05  0.000000D+00  0.159169D-01  0.000000D+00
     15   0.130095D-04 -0.358951D+00  0.000000D+00  0.000000D+00 -0.359512D-03
     16   0.209008D-04  0.000000D+00  0.000000D+00  0.998639D-04  0.979418D-05

 Test job not archived.
 1\1\GINC-BURU\SP\RwB97XD TD-FC\TZVP\C1H2O1\JOHANNES\05-Feb-2024\0\\#p 
 td(50-50,nstates=5) wB97XD/TZVP iop(3/33=1) pop=full iop(8/10=90) Extr
 aLinks(L319) nosymm iop(9/40=3)\\test\\0,1\C,0,-0.131829,-0.000001,-0.
 000286\O,0,1.065288,0.000001,0.00009\H,0,-0.718439,0.939705,0.000097\H
 ,0,-0.718441,-0.939705,0.000136\\Version=ES64L-G16RevB.01\HF=-114.5067
 163\RMSD=3.651e-09\PG=C01 [X(C1H2O1)]\\@


 YOU SHOULDN'T LET PEOPLE DRIVE YOU CRAZY
 WHEN YOU KNOW IT'S WITHIN WALKING DISTANCE.
 Job cpu time:       0 days  0 hours  0 minutes 19.6 seconds.
 Elapsed time:       0 days  0 hours  0 minutes 19.6 seconds.
 File lengths (MBytes):  RWF=     79 Int=      0 D2E=      0 Chk=      2 Scr=      1
 Normal termination of Gaussian 16 at Mon Feb  5 13:19:54 2024.
