test                                                                    
SP        RwB97XD TD-FC                                               TZVP                
Number of atoms                            I                4
Info1-9                                    I   N=           9
          15          13           0           0           0         111
           1         218       -5801
Full Title                                 C   N=           1
test        
Route                                      C   N=           9
#p td(50-50,nstates=5) wB97XD/TZVP iop(3/33=1) pop=full iop(
8/10=90) ExtraLinks(L319) nosymm iop(9/40=3)    
Charge                                     I                0
Multiplicity                               I                1
Number of electrons                        I               16
Number of alpha electrons                  I                8
Number of beta electrons                   I                8
Number of basis functions                  I               50
Number of independent functions            I               50
Number of point charges in /Mol/           I                0
Number of translation vectors              I                0
Atomic numbers                             I   N=           4
           6           8           1           1
Nuclear charges                            R   N=           4
  6.00000000E+00  8.00000000E+00  1.00000000E+00  1.00000000E+00
Current cartesian coordinates              R   N=          12
 -2.49120705E-01 -1.88972612E-06 -5.40461672E-04  2.01310256E+00  1.88972612E-06
  1.70075351E-04 -1.35765295E+00  1.77578509E+00  1.83303434E-04 -1.35765673E+00
 -1.77578509E+00  2.57002753E-04
Number of symbols in /Mol/                 I                0
Force Field                                I                0
Atom Types                                 C   N=           4
                                                
Int Atom Types                             I   N=           4
           0           0           0           0
MM charges                                 R   N=           4
  0.00000000E+00  0.00000000E+00  0.00000000E+00  0.00000000E+00
Integer atomic weights                     I   N=           4
          12          16           1           1
Real atomic weights                        R   N=           4
  1.20000000E+01  1.59949146E+01  1.00782504E+00  1.00782504E+00
Atom fragment info                         I   N=           4
           0           0           0           0
Atom residue num                           I   N=           4
           0           0           0           0
Nuclear spins                              I   N=           4
           0           0           1           1
Nuclear ZEff                               R   N=           4
  6.00000000E+00  8.00000000E+00  1.00000000E+00  1.00000000E+00
Nuclear ZNuc                               R   N=           4
  6.00000000E+00  8.00000000E+00  1.00000000E+00  1.00000000E+00
Nuclear QMom                               R   N=           4
  0.00000000E+00  0.00000000E+00  0.00000000E+00  0.00000000E+00
Nuclear GFac                               R   N=           4
  0.00000000E+00  0.00000000E+00  2.79284600E+00  2.79284600E+00
MicOpt                                     I   N=           4
          -1          -1          -1          -1
Number of residues                         I                0
Number of secondary structures             I                0
Number of contracted shells                I               26
Number of primitive shells                 I               48
Pure/Cartesian d shells                    I                0
Pure/Cartesian f shells                    I                0
Highest angular momentum                   I                2
Largest degree of contraction              I                6
Shell types                                I   N=          26
           0           0           0           0           0           1
           1           1          -2           0           0           0
           0           0           1           1           1          -2
           0           0           0           1           0           0
           0           1
Number of primitives per shell             I   N=          26
           6           2           1           1           1           4
           1           1           1           6           2           1
           1           1           4           1           1           1
           3           1           1           1           3           1
           1           1
Shell to atom map                          I   N=          26
           1           1           1           1           1           1
           1           1           1           2           2           2
           2           2           2           2           2           2
           3           3           3           3           4           4
           4           4
Primitive exponents                        R   N=          48
  1.35753497E+04  2.03523337E+03  4.63225624E+02  1.31200196E+02  4.28530159E+01
  1.55841858E+01  6.20671385E+00  2.57648965E+00  5.76963390E-01  2.29728310E-01
  9.51644400E-02  3.46972322E+01  7.95826228E+00  2.37808269E+00  8.14332080E-01
  2.88875470E-01  1.00568240E-01  8.00000000E-01  2.70323826E+04  4.05238714E+03
  9.22327227E+02  2.61240710E+02  8.53546413E+01  3.10350352E+01  1.22608607E+01
  4.99870760E+00  1.17031082E+00  4.64747410E-01  1.85045360E-01  6.32749548E+01
  1.46270494E+01  4.45012235E+00  1.52757996E+00  5.29351180E-01  1.74784210E-01
  1.20000000E+00  3.40613410E+01  5.12357460E+00  1.16466260E+00  3.27230410E-01
  1.03072410E-01  8.00000000E-01  3.40613410E+01  5.12357460E+00  1.16466260E+00
  3.27230410E-01  1.03072410E-01  8.00000000E-01
Contraction coefficients                   R   N=          48
  6.06460097E-04  4.69789846E-03  2.43324735E-02  9.73999560E-02  3.01955844E-01
  6.62336101E-01  6.55953080E-01  3.75856339E-01  1.00000000E+00  1.00000000E+00
  1.00000000E+00  1.13272290E-02  7.61696612E-02  3.01922515E-01  7.27850278E-01
  1.00000000E+00  1.00000000E+00  1.00000000E+00  5.72265385E-04  4.43533331E-03
  2.30201034E-02  9.28224938E-02  2.93784997E-01  6.74016046E-01  6.38399375E-01
  3.95345866E-01  1.00000000E+00  1.00000000E+00  1.00000000E+00  1.20183316E-02
  8.30054304E-02  3.19917439E-01  7.07155426E-01  1.00000000E+00  1.00000000E+00
  1.00000000E+00  2.54393072E-02  1.90085949E-01  8.52441130E-01  1.00000000E+00
  1.00000000E+00  1.00000000E+00  2.54393072E-02  1.90085949E-01  8.52441130E-01
  1.00000000E+00  1.00000000E+00  1.00000000E+00
Coordinates of each shell                  R   N=          78
 -2.49120705E-01 -1.88972612E-06 -5.40461672E-04 -2.49120705E-01 -1.88972612E-06
 -5.40461672E-04 -2.49120705E-01 -1.88972612E-06 -5.40461672E-04 -2.49120705E-01
 -1.88972612E-06 -5.40461672E-04 -2.49120705E-01 -1.88972612E-06 -5.40461672E-04
 -2.49120705E-01 -1.88972612E-06 -5.40461672E-04 -2.49120705E-01 -1.88972612E-06
 -5.40461672E-04 -2.49120705E-01 -1.88972612E-06 -5.40461672E-04 -2.49120705E-01
 -1.88972612E-06 -5.40461672E-04  2.01310256E+00  1.88972612E-06  1.70075351E-04
  2.01310256E+00  1.88972612E-06  1.70075351E-04  2.01310256E+00  1.88972612E-06
  1.70075351E-04  2.01310256E+00  1.88972612E-06  1.70075351E-04  2.01310256E+00
  1.88972612E-06  1.70075351E-04  2.01310256E+00  1.88972612E-06  1.70075351E-04
  2.01310256E+00  1.88972612E-06  1.70075351E-04  2.01310256E+00  1.88972612E-06
  1.70075351E-04  2.01310256E+00  1.88972612E-06  1.70075351E-04 -1.35765295E+00
  1.77578509E+00  1.83303434E-04 -1.35765295E+00  1.77578509E+00  1.83303434E-04
 -1.35765295E+00  1.77578509E+00  1.83303434E-04 -1.35765295E+00  1.77578509E+00
  1.83303434E-04 -1.35765673E+00 -1.77578509E+00  2.57002753E-04 -1.35765673E+00
 -1.77578509E+00  2.57002753E-04 -1.35765673E+00 -1.77578509E+00  2.57002753E-04
 -1.35765673E+00 -1.77578509E+00  2.57002753E-04
Num ILSW                                   I              100
ILSW                                       I   N=         100
           0           0           0           0           2           0
           0           0           0           0        4639          -1
           5           0           0           0           0           0
           0           0           0           0           0           0
           1           1           0           0           0           0
           0           0      100000           0          -1           0
           0           0           0           0           0           0
           0           0           0           1           0           0
           0 -2000000000           1           0           0           0
           0           0         121          52           0           0
           0           0          58           0           0           0
           0           0           0           4           0           1
           0           0           0           0           0           0
           0           0           0           0           0           0
           0           0           0           0           0           0
           0           0           0           0           0           0
           0           0           0           0
Num RLSW                                   I               52
RLSW                                       R   N=          52
  1.00000000E+00  1.00000000E+00  1.00000000E+00  1.00000000E+00  1.00000000E+00
  0.00000000E+00  2.00000000E-01  2.22036000E-01  0.00000000E+00  7.77964000E-01
  0.00000000E+00  2.00000000E-01  0.00000000E+00  0.00000000E+00  1.00000000E+00
  0.00000000E+00  0.00000000E+00  1.00000000E+00  0.00000000E+00  0.00000000E+00
  0.00000000E+00  0.00000000E+00  1.00000000E+00  0.00000000E+00  0.00000000E+00
  0.00000000E+00  0.00000000E+00  1.00000000E+00  0.00000000E+00  0.00000000E+00
  0.00000000E+00  0.00000000E+00  1.00000000E+00  0.00000000E+00  0.00000000E+00
  0.00000000E+00  0.00000000E+00  0.00000000E+00  1.00000000E+00  1.00000000E+00
  0.00000000E+00  1.00000000E+00  0.00000000E+00  0.00000000E+00  0.00000000E+00
  0.00000000E+00  0.00000000E+00  0.00000000E+00  0.00000000E+00  0.00000000E+00
  0.00000000E+00  0.00000000E+00
MxBond                                     I                3
NBond                                      I   N=           4
           3           1           1           1
IBond                                      I   N=          12
           2           3           4           1           0           0
           1           0           0           1           0           0
RBond                                      R   N=          12
  2.00000000E+00  1.00000000E+00  1.00000000E+00  2.00000000E+00  0.00000000E+00
  0.00000000E+00  1.00000000E+00  0.00000000E+00  0.00000000E+00  1.00000000E+00
  0.00000000E+00  0.00000000E+00
Virial Ratio                               R      2.003933969325581E+00
SCF Energy                                 R     -1.145067162594107E+02
CIS Energy                                 R     -1.143835026452287E+02
Total Energy                               R     -1.143835026452287E+02
Post-SCF wavefunction norm                 R      1.000000000000000E+00
RMS Density                                R      3.651368147530409E-09
Job Status                                 I                1
Nuclear derivative order                   I                0
External E-field                           R   N=          35
  0.00000000E+00  0.00000000E+00  0.00000000E+00  0.00000000E+00  0.00000000E+00
  0.00000000E+00  0.00000000E+00  0.00000000E+00  0.00000000E+00  0.00000000E+00
  0.00000000E+00  0.00000000E+00  0.00000000E+00  0.00000000E+00  0.00000000E+00
  0.00000000E+00  0.00000000E+00  0.00000000E+00  0.00000000E+00  0.00000000E+00
  0.00000000E+00  0.00000000E+00  0.00000000E+00  0.00000000E+00  0.00000000E+00
  0.00000000E+00  0.00000000E+00  0.00000000E+00  0.00000000E+00  0.00000000E+00
  0.00000000E+00  0.00000000E+00  0.00000000E+00  0.00000000E+00  0.00000000E+00
IOpCl                                      I                0
IROHF                                      I                0
Alpha Orbital Energies                     R   N=          50
 -1.92697602E+01 -1.03870018E+01 -1.17387215E+00 -7.33789559E-01 -5.92750131E-01
 -5.46936228E-01 -4.95532826E-01 -3.58394840E-01  2.45295731E-02  1.34661562E-01
  1.93976851E-01  1.95504875E-01  2.89515518E-01  2.93431160E-01  3.48105655E-01
  4.92660766E-01  5.20649307E-01  5.22990126E-01  5.99923762E-01  6.12334120E-01
  7.04879577E-01  8.07595480E-01  1.24030988E+00  1.33594279E+00  1.36971157E+00
  1.37391401E+00  1.40002546E+00  1.57180256E+00  1.72455342E+00  1.78696834E+00
  1.80523051E+00  2.02359725E+00  2.15788268E+00  2.16342490E+00  2.30972658E+00
  2.50633553E+00  2.53360889E+00  2.70243073E+00  2.71502388E+00  2.76075425E+00
  2.77883394E+00  2.89571869E+00  3.05125883E+00  3.07142627E+00  3.26256450E+00
  3.27838378E+00  3.60979992E+00  4.25194975E+00  2.20178997E+01  4.34188298E+01
Alpha MO coefficients                      R   N=        2500
  6.72838153E-06 -7.61453353E-05  6.63751707E-04 -7.66671171E-05 -5.04772929E-03
  5.35851793E-04  2.08947201E-10  1.90659146E-07  6.56097632E-04  1.25808112E-08
  4.40731047E-07 -2.45417033E-03 -2.17056244E-08 -1.11012945E-06 -2.28240894E-04
  1.20344680E-07 -5.81702219E-09  1.14877530E-04 -1.38355855E-09  4.35310351E-01
  6.39769635E-01  3.31200123E-02 -2.10822666E-02  1.29723008E-02 -1.88416267E-03
 -3.66670935E-09 -6.55113833E-07  2.28438701E-03  1.63781698E-09  6.87815197E-07
 -2.55847548E-03 -1.97398117E-10 -7.03933675E-07  6.63588733E-05 -6.94268017E-08
 -6.90120198E-11 -1.18253078E-04 -5.23366003E-11  2.45582008E-05 -2.14863194E-04
  4.01330096E-04 -2.55049730E-04  8.62495948E-05 -5.14402723E-09  2.45592352E-05
 -2.14849132E-04  4.01299468E-04 -2.55045390E-04 -8.62451950E-05 -1.56587026E-09
  4.67205343E-01  6.08907715E-01  3.43007882E-02 -2.13966131E-02  9.64480864E-03
  1.07787988E-03 -6.33506159E-10  2.01702025E-07 -1.18437940E-04 -5.16954359E-09
  2.26574691E-07 -2.54419140E-03 -8.31367012E-09  6.28047579E-07 -1.12156282E-03
  3.95194967E-07 -2.24092123E-08  8.62991639E-04  9.56290724E-09 -9.84868346E-05
 -2.65757422E-04  1.45673679E-03 -3.52426870E-03  4.82221883E-03 -3.57199279E-04
 -9.75849648E-11 -1.37797076E-07  2.25950713E-03  1.18369659E-09  9.32658917E-07
 -2.98725090E-03  3.86040863E-10 -1.31597046E-06  4.43069658E-04 -5.56958111E-07
  1.38517480E-09 -7.00660039E-04 -1.33638668E-09 -1.18644828E-04  6.94896027E-04
 -3.10974577E-03 -4.08591271E-04  8.93294376E-04  3.66298767E-07 -1.18648169E-04
  6.94886136E-04 -3.10975727E-03 -4.08595344E-04 -8.93301963E-04  4.03374926E-07
 -5.65905355E-02 -1.19000222E-01  1.98543294E-01  1.16042733E-01  2.73270109E-02
  1.44359007E-01  2.60298153E-07  4.86901338E-05  5.58927109E-02  3.63233806E-08
  1.47398132E-05 -3.14059138E-04  4.78001748E-08  3.99873415E-06 -1.08656837E-02
  1.21330267E-05  5.18880529E-08  2.13238156E-02  8.52802193E-08 -9.02600312E-02
 -2.12688900E-01  3.09931266E-01  4.01799600E-01  1.06133033E-01 -1.25814112E-01
 -2.09022349E-07 -3.86798594E-05 -9.25535944E-02 -1.49161002E-07 -2.77160760E-05
 -4.74495133E-04  7.00925139E-10 -2.03135662E-07 -6.12019327E-03  8.88692189E-06
  1.15021472E-07  1.61425137E-02  5.84983465E-08  1.55711215E-02  1.77024686E-02
 -6.13965943E-03  5.05480622E-03 -3.57377300E-03 -3.30887948E-07  1.55710366E-02
  1.77023469E-02 -6.13959588E-03  5.05478297E-03  3.57370624E-03 -4.79069586E-07
 -7.94312577E-02 -1.70575473E-01  2.81570651E-01  3.27628854E-01  7.05643494E-02
 -1.53684319E-01 -4.07630837E-07  4.44304884E-05 -9.80523125E-02 -2.30434378E-07
  2.56902943E-05 -3.00182700E-02 -1.24361415E-07  3.71286661E-06 -5.36366345E-03
 -5.94429007E-06 -4.02522129E-07 -1.01009112E-02  3.84669088E-08  4.09168557E-02
  9.75219065E-02 -1.49596089E-01 -2.04585618E-01 -1.38194585E-01 -8.10551860E-02
 -1.19857349E-07  7.05378795E-06 -5.92563704E-02 -9.78731885E-08  8.87103766E-06
 -2.02014889E-02 -1.24356506E-08 -4.35097015E-07 -3.53824585E-03 -1.98526999E-06
 -4.77380651E-08  3.82788581E-03  1.74347537E-08  1.10083681E-01  1.41179398E-01
  2.32893206E-02  6.50535971E-03 -1.73524911E-02 -5.89456142E-06  1.10084191E-01
  1.41180030E-01  2.32893100E-02  6.50545103E-03  1.73525264E-02 -6.61456843E-06
 -5.81359450E-08 -1.28287631E-07  2.16254334E-07  4.11986781E-07 -2.01777878E-07
  4.02501258E-07  3.19390218E-01 -6.62817763E-06  1.72042678E-07  2.41774622E-01
 -5.01745991E-06 -2.03774864E-09  6.56892897E-02 -1.36317781E-06 -3.07097000E-08
 -7.80477386E-08  1.69982679E-05 -6.36568376E-08  3.74234979E-03  1.70546670E-07
  4.06100436E-07 -6.02261097E-07 -9.65100548E-07 -9.45615810E-07 -1.54322382E-06
  2.21887866E-01 -4.60524530E-06 -1.12633904E-06  1.83481723E-01 -3.80793834E-06
 -4.86007809E-07  7.50777991E-02 -1.55831230E-06 -4.07966878E-08  4.34864359E-07
 -6.13813536E-06  1.27813192E-07 -2.09539619E-02  1.16837903E-01  1.56537891E-01
  5.08924493E-02  1.04926027E-02 -1.07715161E-02 -7.35880731E-06 -1.16837895E-01
 -1.56537941E-01 -5.08923103E-02 -1.04926316E-02 -1.07715176E-02  7.80519807E-06
  1.39396636E-02  3.08275406E-02 -6.65808949E-02 -5.54674793E-02  4.21294982E-02
 -2.71364305E-01  5.84561001E-07  5.79229200E-05 -1.91533975E-01  6.15939677E-07
  5.86861376E-05 -2.47097928E-02  2.97597016E-07  2.78835537E-05  4.39107739E-03
 -2.50884669E-06 -2.77661659E-07 -2.09927144E-02  9.23377343E-09 -3.68885988E-02
 -8.80347878E-02  1.29863552E-01  2.10591019E-01  2.46609645E-01  3.92273327E-01
  1.69243296E-06  2.47620729E-04  2.83489267E-01  1.34228323E-06  1.96334811E-04
  1.27799978E-01  5.75608137E-07  8.74761980E-05  1.19558172E-02 -2.39080381E-05
  4.51333266E-08 -1.85297497E-02 -1.47419994E-07  5.17455567E-02  7.21817050E-02
  2.78899360E-02 -3.42107778E-03 -6.97517207E-03 -1.05008872E-06  5.17452839E-02
  7.21814613E-02  2.78898385E-02 -3.42107521E-03  6.97520133E-03 -1.33965145E-06
  1.72352241E-05  3.74098599E-05 -6.05229947E-05 -8.91690268E-05 -4.16299350E-05
  8.05204664E-05  5.46397273E-06  2.63302198E-01  4.61462325E-05  4.88816503E-06
  2.35542282E-01  2.97290465E-06  1.73111502E-06  8.34399194E-02  1.61109548E-05
  3.47350496E-02  5.64253003E-08 -2.16779579E-06  7.20532990E-07  7.01277724E-06
  1.67375115E-05 -2.42564245E-05 -3.56498210E-05 -9.18592543E-05 -2.72745349E-04
  7.75473919E-06  3.73718751E-01 -2.11759937E-04  6.61865676E-06  3.18965806E-01
 -1.05109752E-04  3.60170582E-06  1.73568545E-01 -2.02241159E-05 -2.87645230E-02
 -5.17169187E-08  1.60871703E-05 -5.96870877E-07 -9.08450940E-06 -3.46545763E-05
 -1.84432069E-05  3.95221998E-06  9.96073784E-07  7.34235719E-03 -9.08454311E-06
 -3.46547069E-05 -1.84439938E-05  3.95258858E-06 -6.91283031E-07  7.34236613E-03
  2.06421374E-08  4.53823670E-08 -9.22427569E-08  3.12071728E-08 -8.02706970E-07
  3.86025903E-07 -1.14375396E-01  2.37338959E-06  4.63668571E-07 -6.62283170E-02
  1.37434650E-06  6.35931266E-07  4.54224272E-02 -9.42995573E-07 -3.01548960E-08
 -1.07354999E-06  2.71772635E-06 -1.47615111E-08  5.17501904E-02 -2.16880457E-08
 -5.19721601E-08  8.94134275E-08  1.61181354E-07 -4.58610654E-07 -1.23895841E-06
  4.23033323E-01 -8.77872527E-06 -9.28661744E-07  3.63112880E-01 -7.53539662E-06
 -6.59873033E-07  2.64557866E-01 -5.48968145E-06  3.58729078E-09  2.77441929E-07
 -5.72970641E-06  6.21343019E-08 -1.33668448E-02 -1.03909346E-01 -2.23063554E-01
 -1.84998763E-01 -4.71796336E-03  6.23806927E-03  7.32761265E-06  1.03909034E-01
  2.23063192E-01  1.84999100E-01  4.71804713E-03  6.23793750E-03 -7.58606144E-06
  3.89949443E-05  8.62173540E-05 -1.51526044E-04 -2.42572732E-04 -9.26569202E-04
  3.30138771E-05  6.96490493E-06  3.35630951E-01  2.94598965E-05  7.48225348E-06
  3.60533827E-01  1.32787823E-04  1.09502896E-05  5.27660208E-01 -2.94104234E-05
 -3.26448860E-02 -5.88724454E-08  7.61710002E-06 -6.77885688E-07 -5.66293057E-06
 -1.37461339E-05  2.34591972E-05  3.90348112E-05 -3.57815152E-06  4.05027001E-05
 -6.60419640E-06 -3.18252346E-01  4.10722118E-05 -5.39543941E-06 -2.60011053E-01
  8.20899166E-05 -8.95679901E-06 -4.31603074E-01 -5.11643864E-06 -4.99300191E-03
 -5.98921614E-09  2.37484870E-06 -1.03647747E-07  8.44310042E-05  1.69890147E-04
  4.84023589E-04 -3.57133402E-06 -5.03449346E-06  2.65820294E-02  8.44313765E-05
  1.69891333E-04  4.84024685E-04 -3.57050558E-06  6.13772647E-06  2.65821288E-02
 -4.79723638E-02 -1.04812419E-01  1.80875345E-01  3.98957097E-01  2.21841167E+00
 -1.48696067E-01  1.16140107E-07  1.61912940E-04 -1.22102406E-01  6.60813785E-08
  1.40013737E-04 -7.16453725E-01  5.38772650E-08  8.92323565E-04  2.00995865E-02
 -4.77861087E-06  1.07457355E-06  1.69614257E-02 -3.01672964E-08  4.81253506E-04
  7.83517447E-04  5.55938868E-03 -4.28322303E-02  9.78224076E-02  4.99204015E-02
  1.56045861E-07 -1.08231523E-04  5.29717591E-02  1.10015749E-07 -5.37682778E-05
  2.16586510E-02  3.81900310E-07 -3.44865975E-04  2.62929017E-03 -8.05282418E-06
  1.39236059E-07  2.15694038E-03 -2.13446632E-08 -5.10565351E-02  4.87010236E-02
 -1.85938094E+00  9.53270855E-03 -2.99325868E-02  5.10685400E-06 -5.10564648E-02
  4.87015031E-02 -1.85938473E+00  9.53279864E-03  2.99326357E-02  3.86445741E-06
  9.25027780E-03  1.94049845E-02 -1.40031430E-02 -2.56906478E-01 -1.74609656E+00
 -1.88678516E-02  3.49110022E-05 -2.14583960E-05 -1.38297530E-01  3.51748885E-05
 -7.27416474E-05 -1.73463522E+00  1.78742794E-04 -5.34724496E-04 -2.54024302E-02
  2.68191253E-05  5.65316587E-08  4.68615137E-02  2.66270220E-06 -3.23837292E-02
 -8.44212017E-02  2.25474048E-01 -2.08025015E-01  2.24552445E+00 -5.90290913E-02
 -1.17524326E-05 -6.62961370E-06 -3.87916283E-02 -5.66387987E-06  6.93560887E-06
 -5.38436012E-01 -4.41684634E-05 -1.77175129E-04 -2.44007261E-03  3.70448314E-06
  2.66030419E-08  5.56014643E-03 -1.40483217E-06  1.30654182E-02  2.45371764E-02
 -2.03413132E-02 -1.61656855E-02 -9.47912260E-03 -1.21738439E-05  1.30703729E-02
  2.44921028E-02 -1.97691242E-02 -1.61715491E-02  9.47332562E-03 -1.25619199E-05
 -1.11581294E-06 -2.35028108E-06  1.93612549E-06  3.02405740E-05  2.20654429E-04
  2.05736501E-06  2.79463748E-01 -5.79663646E-06  1.62574136E-05  2.88383916E-01
 -5.97549211E-06  2.18887104E-04  1.44838861E+00 -2.99885963E-05  3.20932316E-06
 -4.17413938E-07 -2.49626813E-05 -5.77099888E-06  1.99389875E-02  4.01733731E-06
  1.04883513E-05 -2.82209579E-05  2.69683984E-05 -2.82685143E-04  7.31007729E-06
 -9.05195161E-02  1.87932663E-06  4.56393742E-06 -4.30417120E-02  8.92356457E-07
  6.75421763E-05 -3.41576643E-01  7.11084500E-06  3.11811112E-07  2.36674328E-07
 -8.72430852E-06 -6.25815129E-07 -1.14284515E-02 -1.78037245E-02  1.87567427E-01
 -2.32371412E+00  2.30024491E-02 -2.31354311E-02 -2.16707911E-05  1.78003544E-02
 -1.87574096E-01  2.32371868E+00 -2.29985964E-02 -2.31376973E-02  2.26336336E-05
  1.53782875E-02  2.29630854E-02  1.61593193E-01 -1.42454769E+00  5.20731594E+00
  1.06193709E-02 -2.77818297E-07  3.49643429E-04  1.70406143E-01 -5.23641395E-07
  7.90233563E-04 -1.57547415E+00  5.87065927E-06  9.78094966E-05  4.36965093E-02
  1.67777606E-06  2.02580893E-06  2.19239780E-02 -1.20282144E-07  6.46269067E-03
  1.64158318E-02 -3.89278019E-02  1.59050284E-02 -2.27113990E-01 -2.26209901E-02
  1.68836506E-07 -1.20162176E-04 -6.72564962E-02  3.25409065E-07 -1.11535365E-04
  1.85132395E-01 -1.18490185E-06 -2.95959606E-04  9.91516109E-03 -2.17789877E-05
  3.62002460E-07  2.74166890E-04  2.51247587E-08 -5.68012633E-02 -4.06390222E-01
 -1.89330486E+00 -1.05979119E-02 -2.29028696E-02  1.81442206E-05 -5.68011710E-02
 -4.06388162E-01 -1.89330405E+00 -1.05978247E-02  2.29030473E-02  1.71932451E-05
 -9.18439502E-06 -2.46820407E-05  1.22515325E-04 -5.21953131E-04  4.01467654E-03
  4.96374548E-05 -6.24488603E-06 -3.00923315E-01  2.38448037E-04 -1.61103106E-05
 -7.76326763E-01 -1.64041927E-03  2.74424675E-05  1.32232609E+00  3.31709707E-05
 -1.23315411E-02 -7.95411691E-09  2.44685007E-05 -2.55600763E-07  6.63279505E-06
  1.70123298E-05 -4.21631536E-05  2.55030148E-05 -2.49868705E-04  2.58918520E-06
  1.85796059E-07  8.93985473E-03 -4.55660737E-05  8.31467799E-07  4.00590357E-02
  2.42290884E-04 -1.94133102E-06 -9.35365083E-02  1.71938687E-05  1.49536083E-02
  2.58032717E-08 -2.32253122E-06  3.10369510E-07 -6.25424868E-05 -5.43244847E-04
 -1.58550483E-03 -1.55042723E-05 -1.72200456E-05  2.68201963E-03 -6.25425394E-05
 -5.43243180E-04 -1.58550902E-03 -1.55047807E-05  1.73315650E-05  2.68202325E-03
 -5.31844727E-08 -8.24533618E-08 -5.11707070E-07  5.77367310E-06 -5.48535360E-06
  3.64263445E-08 -5.32934720E-02  1.10537213E-06  7.97946637E-07 -4.69373834E-01
  9.74035080E-06  1.36681683E-05  3.86715165E+00 -8.02498850E-05 -1.03493123E-08
 -3.91178328E-07 -6.87541713E-05  6.44903973E-08  1.88608997E-02  9.48438844E-08
  2.59406456E-07 -8.51690043E-07  1.76598128E-06 -1.43074901E-05 -1.43969436E-07
 -1.75578284E-01  3.64414679E-06 -3.48896843E-07 -1.26532119E-01  2.62612307E-06
  4.34545436E-06 -5.71418751E-01  1.18604562E-05  3.39843451E-08 -8.43440985E-08
 -1.15468324E-05 -1.47454756E-08  4.06640208E-03 -2.24815480E-02 -2.10687162E-01
 -2.60406834E+00  3.08917909E-02 -7.03150105E-03 -4.36012238E-05  2.24818297E-02
  2.10687309E-01  2.60408092E+00 -3.08919539E-02 -7.03147810E-03  4.38930996E-05
  6.47806791E-02  1.37704293E-01  2.44547695E-02 -2.91086209E+00  4.23414219E+00
  5.64575613E-02  2.11420421E-07 -1.68267225E-04  1.78051156E-01  2.04905666E-07
 -6.38848794E-04 -8.80670973E-01  8.91977957E-07  7.68410779E-04 -7.11299134E-03
  7.34822780E-06 -1.42579653E-07  5.47852229E-03  3.65261073E-08 -1.89732198E-02
 -4.44989488E-02  5.11493869E-02  2.30627854E-01  2.91798970E-01 -1.77712511E-02
 -5.58885481E-07 -1.82290437E-05  7.84016744E-02 -5.83675498E-07 -4.56998517E-05
 -1.01090473E+00 -5.42028135E-07 -4.27136510E-06  9.33085569E-03  9.28764393E-06
 -9.71193787E-09 -1.66288689E-02 -1.39304585E-07  8.49633955E-02  1.12292696E+00
 -2.35015720E+00  2.85183754E-02 -1.25999029E-02 -1.93662733E-05  8.49637073E-02
  1.12293111E+00 -2.35016088E+00  2.85183351E-02  1.25999520E-02 -1.98885316E-05
  1.04301986E-02  2.63629816E-02 -4.33779406E-02  6.03840037E-01  2.28480425E+00
  2.03761261E-01  1.58133199E-05 -4.68589806E-05  9.32455195E-01  5.49248760E-05
 -7.42609784E-05 -7.55902025E-01 -4.59831355E-05  2.97312926E-04 -2.10887212E-02
  1.13494302E-05 -4.77913043E-07  1.35682346E-02  3.33657484E-07  1.92943939E-02
  4.42918946E-02 -3.27474530E-02 -2.81238773E-01 -8.66928395E-01 -1.22447853E-01
 -3.57711579E-06 -4.49815283E-05 -2.77049896E-01 -2.44463688E-06 -1.32867126E-04
  1.81650119E+00 -1.52067805E-05  7.68661714E-04 -1.16847026E-02  2.38208729E-05
 -8.49779514E-08  1.61799441E-02 -1.48642695E-06  5.77435713E-02  6.49256525E-01
 -1.31077016E+00 -5.81163001E-03 -1.59056907E-02 -2.65592575E-05  5.77518896E-02
  6.49380077E-01 -1.31094090E+00 -5.81164008E-03  1.59101277E-02 -2.72170997E-05
 -2.07800426E-07 -5.83501569E-07  1.66911210E-06 -3.23408238E-05 -1.07161444E-04
 -1.23945480E-05  3.51740770E-01 -7.29825556E-06 -5.19628119E-05  1.18040012E+00
 -2.44931012E-05  4.69835672E-05 -9.32321025E-01  1.93353435E-05  7.51150756E-07
 -1.88679570E-07 -2.71563735E-05 -3.79499990E-07  9.07357288E-03 -1.06442087E-06
 -2.42246687E-06  1.23412313E-06  1.97790993E-05  3.13698668E-05  2.42477716E-06
 -8.57940834E-02  1.78278033E-06  6.37306463E-06 -6.66257100E-02  1.38941400E-06
 -7.88634059E-05 -3.81232844E-01  7.87197514E-06  5.69989695E-07  6.90659967E-07
 -1.79556727E-05 -5.98421777E-07 -3.33333953E-02 -9.25211111E-02 -1.36202987E+00
  1.79433371E+00  3.20479686E-03  4.73926159E-02 -2.55301548E-05  9.25158315E-02
  1.36196722E+00 -1.79420007E+00 -3.20534736E-03  4.73914222E-02  2.35649452E-05
 -5.91310438E-05 -1.33069711E-04  5.78205711E-05  1.81633194E-03 -2.24014429E-03
  2.81908488E-04  1.91663997E-06  9.20386650E-02  1.46862919E-03 -7.92297876E-07
 -3.90730382E-02 -3.08538160E-04 -1.45862683E-05 -7.01947520E-01  3.15730392E-05
 -1.22625838E-02 -4.17004310E-09 -2.39291490E-05 -2.54232281E-07  2.87837584E-05
  6.45942752E-05  1.18134619E-05 -9.25122766E-04  1.42510031E-04  5.08596887E-04
 -6.28832598E-06 -3.02912458E-01  1.14063861E-03 -1.50179573E-05 -7.23536871E-01
 -4.94295055E-04  3.37299801E-05  1.62524414E+00  5.66684825E-06  1.94158248E-02
  3.62538779E-08 -7.63335848E-06  4.02352467E-07 -3.45599725E-05 -6.26723039E-05
  7.97495238E-04  1.26122221E-04  1.06049797E-05 -6.05801799E-03 -3.45576453E-05
 -6.26290756E-05  7.97437766E-04  1.26121727E-04 -1.08559369E-05 -6.05831627E-03
 -3.58892438E-02 -8.02238548E-02 -2.33723740E-02  1.17583797E+00  1.36498660E-01
  3.40898505E-01  4.06632977E-06 -5.48932019E-06  1.41876549E+00  1.29071507E-05
  3.84808171E-04 -1.00731269E+00 -8.32928459E-06  7.30769477E-04  3.63310245E-02
  7.48245335E-06  6.79498286E-07 -3.00932565E-02  1.38293616E-07  2.63208214E-02
  5.92840210E-02  4.77195489E-03 -8.14768113E-01 -2.74445804E-03  3.59639088E-01
 -5.78752267E-07  4.52070984E-04  8.05709945E-01  1.57753121E-07  1.07305389E-03
  6.34342702E-02 -2.54913536E-06 -1.84705044E-03 -1.47442815E-03 -2.06726290E-05
 -3.38323232E-08  9.38021760E-04 -3.99606858E-07 -4.52093967E-03  1.38100805E-01
 -4.19947551E-01  7.66461064E-02  1.53811509E-02  4.19148161E-05 -4.51959979E-03
  1.38130261E-01 -4.19982051E-01  7.66460723E-02 -1.53807460E-02  4.25568478E-05
 -4.66868814E-09 -1.88655621E-08  6.00440051E-08 -5.51332101E-06 -1.64395464E-05
  2.03779966E-07 -1.79561518E-01  3.72638278E-06 -9.71832209E-07  7.76691453E-02
 -1.61295461E-06  4.49650518E-06  3.44593987E+00 -7.15169882E-05  9.42265214E-08
  4.63078705E-08 -9.12979946E-05 -2.48882104E-07 -2.22742606E-03  1.60240285E-07
  3.28423252E-07  4.62993464E-07 -7.73182469E-06  1.26884697E-05 -4.97972410E-08
  2.69303309E-01 -5.58975303E-06  4.27827240E-08  7.39812828E-01 -1.53560741E-05
 -4.88143579E-06 -2.32541150E+00  4.82656263E-05  1.01973404E-07  5.40073775E-07