 Entering Gaussian System, Link 0=g16
 Input=01_h2co_sph.gjf
 Output=01_h2co_sph.log
 Initial command:
 /usr/remote/gaussian/g16/l1.exe "/tmp/Gau-13067.inp" -scrdir="/tmp/"
 Entering Link 1 = /usr/remote/gaussian/g16/l1.exe PID=     13068.
  
 Copyright (c) 1988-2017, Gaussian, Inc.  All Rights Reserved.
  
 This is part of the Gaussian(R) 16 program.  It is based on
 the Gaussian(R) 09 system (copyright 2009, Gaussian, Inc.),
 the Gaussian(R) 03 system (copyright 2003, Gaussian, Inc.),
 the Gaussian(R) 98 system (copyright 1998, Gaussian, Inc.),
 the Gaussian(R) 94 system (copyright 1995, Gaussian, Inc.),
 the Gaussian 92(TM) system (copyright 1992, Gaussian, Inc.),
 the Gaussian 90(TM) system (copyright 1990, Gaussian, Inc.),
 the Gaussian 88(TM) system (copyright 1988, Gaussian, Inc.),
 the Gaussian 86(TM) system (copyright 1986, Carnegie Mellon
 University), and the Gaussian 82(TM) system (copyright 1983,
 Carnegie Mellon University). Gaussian is a federally registered
 trademark of Gaussian, Inc.
  
 This software contains proprietary and confidential information,
 including trade secrets, belonging to Gaussian, Inc.
  
 This software is provided under written license and may be
 used, copied, transmitted, or stored only in accord with that
 written license.
  
 The following legend is applicable only to US Government
 contracts under FAR:
  
                    RESTRICTED RIGHTS LEGEND
  
 Use, reproduction and disclosure by the US Government is
 subject to restrictions as set forth in subparagraphs (a)
 and (c) of the Commercial Computer Software - Restricted
 Rights clause in FAR 52.227-19.
  
 Gaussian, Inc.
 340 Quinnipiac St., Bldg. 40, Wallingford CT 06492
  
  
 ---------------------------------------------------------------
 Warning -- This program may not be used in any manner that
 competes with the business of Gaussian, Inc. or will provide
 assistance to any competitor of Gaussian, Inc.  The licensee
 of this program is prohibited from giving any competitor of
 Gaussian, Inc. access to this program.  By using this program,
 the user acknowledges that Gaussian, Inc. is engaged in the
 business of creating and licensing software in the field of
 computational chemistry and represents and warrants to the
 licensee that it is not a competitor of Gaussian, Inc. and that
 it will not use this program in any manner prohibited above.
 ---------------------------------------------------------------
  

 Cite this work as:
 Gaussian 16, Revision B.01,
 M. J. Frisch, G. W. Trucks, H. B. Schlegel, G. E. Scuseria, 
 M. A. Robb, J. R. Cheeseman, G. Scalmani, V. Barone, 
 G. A. Petersson, H. Nakatsuji, X. Li, M. Caricato, A. V. Marenich, 
 J. Bloino, B. G. Janesko, R. Gomperts, B. Mennucci, H. P. Hratchian, 
 J. V. Ortiz, A. F. Izmaylov, J. L. Sonnenberg, D. Williams-Young, 
 F. Ding, F. Lipparini, F. Egidi, J. Goings, B. Peng, A. Petrone, 
 T. Henderson, D. Ranasinghe, V. G. Zakrzewski, J. Gao, N. Rega, 
 G. Zheng, W. Liang, M. Hada, M. Ehara, K. Toyota, R. Fukuda, 
 J. Hasegawa, M. Ishida, T. Nakajima, Y. Honda, O. Kitao, H. Nakai, 
 T. Vreven, K. Throssell, J. A. Montgomery, Jr., J. E. Peralta, 
 F. Ogliaro, M. J. Bearpark, J. J. Heyd, E. N. Brothers, K. N. Kudin, 
 V. N. Staroverov, T. A. Keith, R. Kobayashi, J. Normand, 
 K. Raghavachari, A. P. Rendell, J. C. Burant, S. S. Iyengar, 
 J. Tomasi, M. Cossi, J. M. Millam, M. Klene, C. Adamo, R. Cammi, 
 J. W. Ochterski, R. L. Martin, K. Morokuma, O. Farkas, 
 J. B. Foresman, and D. J. Fox, Gaussian, Inc., Wallingford CT, 2016.
 
 ******************************************
 Gaussian 16:  ES64L-G16RevB.01 20-Dec-2017
                31-Jan-2024 
 ******************************************
 %chk=01_h2co_sph.chk
 ----------------------------------------------------------
 # td(50-50,nstates=5) wB97XD/TZVP 5D 7F nosymm iop(9/40=2)
 ----------------------------------------------------------
 1/38=1,172=1/1;
 2/12=2,15=1,17=6,18=5,40=1/2;
 3/5=19,7=101,8=11,11=9,25=1,30=1,74=-58/1,2,3,8;
 4//1;
 5/5=2,38=5/2;
 8/6=1,10=1,108=5/1;
 9/40=2,41=5,42=1,48=2,70=2/14;
 6/7=2,8=2,9=2,10=2/1;
 99/5=1,9=1/99;
 ----------------------------
 formaldehyde for SO-coupling
 ----------------------------
 Symbolic Z-matrix:
 Charge =  0 Multiplicity = 1
 C                    -0.13183  0.        -0.00029 
 O                     1.06529   0.        0.00009 
 H                    -0.71844   0.93971   0.0001 
 H                    -0.71844  -0.93971   0.00014 
 
                          Input orientation:                          
 ---------------------------------------------------------------------
 Center     Atomic      Atomic             Coordinates (Angstroms)
 Number     Number       Type             X           Y           Z
 ---------------------------------------------------------------------
      1          6           0       -0.131829   -0.000001   -0.000286
      2          8           0        1.065288    0.000001    0.000090
      3          1           0       -0.718439    0.939705    0.000097
      4          1           0       -0.718441   -0.939705    0.000136
 ---------------------------------------------------------------------
                    Distance matrix (angstroms):
                    1          2          3          4
     1  C    0.000000
     2  O    1.197117   0.000000
     3  H    1.107772   2.016116   0.000000
     4  H    1.107771   2.016119   1.879410   0.000000
 Symmetry turned off by external request.
 Stoichiometry    CH2O
 Framework group  C1[X(CH2O)]
 Deg. of freedom     6
 Full point group                 C1      NOp   1
 Rotational constants (GHZ):         283.9349571          39.2953494          34.5181868
 Standard basis: TZVP (5D, 7F)
    50 basis functions,    86 primitive gaussians,    52 cartesian basis functions
     8 alpha electrons        8 beta electrons
       nuclear repulsion energy        31.4315454123 Hartrees.
 NAtoms=    4 NActive=    4 NUniq=    4 SFac= 1.00D+00 NAtFMM=   60 NAOKFM=F Big=F
 Integral buffers will be    131072 words long.
 Raffenetti 1 integral format.
 Two-electron integral symmetry is turned off.
 Nuclear repulsion after empirical dispersion term =       31.4313595013 Hartrees.
 One-electron integrals computed using PRISM.
 NBasis=    50 RedAO= T EigKep=  5.47D-03  NBF=    50
 NBsUse=    50 1.00D-06 EigRej= -1.00D+00 NBFU=    50
 ExpMin= 9.52D-02 ExpMax= 2.70D+04 ExpMxC= 9.22D+02 IAcc=3 IRadAn=         5 AccDes= 0.00D+00
 Harris functional with IExCor= 4639 and IRadAn=       5 diagonalized for initial guess.
 HarFok:  IExCor= 4639 AccDes= 0.00D+00 IRadAn=         5 IDoV= 1 UseB2=F ITyADJ=14
 ICtDFT=  3500011 ScaDFX=  1.000000  1.000000  1.000000  1.000000
 FoFCou: FMM=F IPFlag=           0 FMFlag=      100000 FMFlg1=           0
         NFxFlg=           0 DoJE=T BraDBF=F KetDBF=T FulRan=T
         wScrn=  0.000000 ICntrl=       500 IOpCl=  0 I1Cent=   200000004 NGrid=           0
         NMat0=    1 NMatS0=      1 NMatT0=    0 NMatD0=    1 NMtDS0=    0 NMtDT0=    0
 Symmetry not used in FoFCou.
 Keep R1 ints in memory in canonical form, NReq=2504037.
 Requested convergence on RMS density matrix=1.00D-08 within 128 cycles.
 Requested convergence on MAX density matrix=1.00D-06.
 Requested convergence on             energy=1.00D-06.
 No special actions if energy rises.
 Integral accuracy reduced to 1.0D-05 until final iterations.
 Initial convergence to 1.0D-05 achieved.  Increase integral accuracy.
 SCF Done:  E(RwB97XD) =  -114.506716259     A.U. after   14 cycles
            NFock= 14  Conv=0.37D-08     -V/T= 2.0039
 DoSCS=F DFT=T ScalE2(SS,OS)=  1.000000  1.000000
 ExpMin= 9.52D-02 ExpMax= 2.70D+04 ExpMxC= 9.22D+02 IAcc=3 IRadAn=         5 AccDes= 0.00D+00
 HarFok:  IExCor=  205 AccDes= 0.00D+00 IRadAn=         5 IDoV=-2 UseB2=F ITyADJ=14
 ICtDFT= 12500011 ScaDFX=  1.000000  1.000000  1.000000  1.000000
 Range of M.O.s used for correlation:     3    50
 NBasis=    50 NAE=     8 NBE=     8 NFC=     2 NFV=     0
 NROrb=     48 NOA=     6 NOB=     6 NVA=    42 NVB=    42
 Keep R1, R2, and R3 ints in memory in canonical form, NReq=6805796.
    40 initial guesses have been made.
 Convergence on wavefunction:    0.001000000000000
 Iteration     1 Dimension    40 NMult     0 NNew     40
 CISAX will form    40 AO SS matrices at one time.
 New state      1 was old state      2
 New state      2 was old state      1
 New state      3 was old state      6
 New state      5 was old state     12
 New state      6 was old state      3
 New state      7 was old state      8
 New state      8 was old state     11
 New state      9 was old state      7
 New state     10 was old state     14
 New state     11 was old state     10
 New state     12 was old state      9
 New state     14 was old state      5
 New state     15 was old state     16
 New state     16 was old state     15
 New state     17 was old state     19
 New state     18 was old state     20
 New state     19 was old state     18
 New state     20 was old state     17
 Iteration     2 Dimension    60 NMult    40 NNew     20
 New state      7 was old state      8
 New state      8 was old state      7
 New state     10 was old state     12
 Iteration     3 Dimension    80 NMult    60 NNew     20
 Iteration     4 Dimension   100 NMult    80 NNew     20
 Iteration     5 Dimension   104 NMult   100 NNew      4
 Iteration     6 Dimension   106 NMult   104 NNew      2
 ***********************************************************************
 Excited states from <AA,BB:AA,BB> singles matrix:
 ***********************************************************************
 
 Ground to excited state transition densities written to RWF  633
 Ground to excited state transition electric dipole moments (Au):
       state          X           Y           Z        Dip. S.      Osc.
         1        -0.0000     -0.0000      0.0000      0.0000      0.0000
         2        -0.0000      0.0003      0.0000      0.0000      0.0000
         3         0.0000     -0.0000     -0.0000      0.0000      0.0000
         4         0.0000      0.0000      0.0000      0.0000      0.0000
         5         0.0000     -0.0000     -0.0000      0.0000      0.0000
         6         0.0000     -0.7336      0.0000      0.5382      0.1118
         7        -0.0007      0.0000      0.0564      0.0032      0.0007
         8         0.0000     -0.0000     -0.0000      0.0000      0.0000
         9        -0.0000      0.4534     -0.0000      0.2056      0.0484
        10         0.3353      0.0000      0.0007      0.1125      0.0267
 Ground to excited state transition velocity dipole moments (Au):
       state          X           Y           Z        Dip. S.      Osc.
         1         0.0000      0.0000     -0.0000      0.0000      0.0000
         2         0.0000     -0.0000     -0.0000      0.0000      0.0000
         3         0.0000      0.0000      0.0000      0.0000      0.0000
         4        -0.0000      0.0000     -0.0000      0.0000      0.0000
         5        -0.0000      0.0000      0.0000      0.0000      0.0000
         6        -0.0000      0.2188     -0.0000      0.0479      0.1024
         7         0.0002     -0.0000     -0.0363      0.0013      0.0026
         8        -0.0000      0.0000     -0.0000      0.0000      0.0000
         9         0.0000     -0.1675      0.0000      0.0281      0.0529
        10        -0.1080     -0.0000     -0.0002      0.0117      0.0218
 Ground to excited state transition magnetic dipole moments (Au):
       state          X           Y           Z
         1        -0.0000     -0.0000      0.0000
         2        -1.2316     -0.0000     -0.0002
         3        -0.0000     -0.0000      0.0000
         4        -0.0000     -0.0000      0.0000
         5         0.0000     -0.0000     -0.0000
         6        -0.0000     -0.0000     -0.7521
         7        -0.0000      1.5969     -0.0000
         8        -0.0000     -0.0000      0.0000
         9         0.0004     -0.0000     -1.0718
        10         0.0000      0.0018     -0.0001
 Ground to excited state transition velocity quadrupole moments (Au):
       state          XX          YY          ZZ          XY          XZ          YZ
         1        -0.0000     -0.0000     -0.0000     -0.0000     -0.0000     -0.0000
         2        -0.0000     -0.0000      0.0000      0.0001      0.0000     -0.0985
         3         0.0000      0.0000      0.0000     -0.0000      0.0000     -0.0000
         4         0.0000      0.0000     -0.0000      0.0000      0.0000      0.0000
         5        -0.0000     -0.0000     -0.0000     -0.0000      0.0000      0.0000
         6        -0.0000      0.0000      0.0000     -0.6270      0.0000      0.0000
         7         0.0008      0.0002     -0.0004     -0.0000     -0.3600      0.0000
         8        -0.0000      0.0000      0.0000     -0.0000      0.0000      0.0000
         9         0.0000      0.0000     -0.0000      0.0153     -0.0000      0.0001
        10        -0.6203     -0.2693      0.2025      0.0000     -0.0004      0.0000
 <0|del|b> * <b|rxdel|0> + <0|del|b> * <b|delr+rdel|0>
 Rotatory Strengths (R) in cgs (10**-40 erg-esu-cm/Gauss)
       state          XX          YY          ZZ    R(velocity)    E-M Angle
         1        -0.0000     -0.0000     -0.0000     -0.0000       90.00
         2         0.0000     -0.0000     -0.0000     -0.0000       90.00
         3        -0.0000      0.0000      0.0000      0.0000       90.00
         4        -0.0000      0.0000     -0.0000     -0.0000       90.00
         5        -0.0000     -0.0000     -0.0000     -0.0000       90.00
         6        -0.0000      0.0006     -0.0006     -0.0000       90.00
         7         0.0000      0.0010     -0.0010      0.0000       90.00
         8        -0.0000     -0.0000     -0.0000     -0.0000       90.00
         9         0.0000     -0.0038      0.0038      0.0000       90.00
        10        -0.0000     -0.0010      0.0010     -0.0000       90.00
 1/2[<0|r|b>*<b|rxdel|0> + (<0|rxdel|b>*<b|r|0>)*]
 Rotatory Strengths (R) in cgs (10**-40 erg-esu-cm/Gauss)
       state          XX          YY          ZZ     R(length)
         1        -0.0000     -0.0000     -0.0000     -0.0000
         2        -0.0000      0.0000      0.0000     -0.0000
         3         0.0000     -0.0000      0.0000      0.0000
         4         0.0000      0.0000     -0.0000      0.0000
         5        -0.0000     -0.0000     -0.0000     -0.0000
         6         0.0000     -0.0081      0.0081     -0.0000
         7        -0.0000     -0.0013      0.0013      0.0000
         8         0.0000     -0.0000      0.0000     -0.0000
         9         0.0000      0.0072     -0.0072      0.0000
        10        -0.0000     -0.0000      0.0000     -0.0000
  1/2[<0|del|b>*<b|r|0> + (<0|r|b>*<b|del|0>)*] (Au)
       state          X           Y           Z        Dip. S.   Osc.(frdel)
         1        -0.0000     -0.0000     -0.0000      0.0000      0.0000
         2        -0.0000     -0.0000     -0.0000      0.0000      0.0000
         3         0.0000     -0.0000     -0.0000      0.0000      0.0000
         4        -0.0000      0.0000     -0.0000     -0.0000     -0.0000
         5        -0.0000     -0.0000     -0.0000      0.0000      0.0000
         6        -0.0000     -0.1605     -0.0000      0.1605      0.1070
         7        -0.0000     -0.0000     -0.0021      0.0021      0.0014
         8        -0.0000     -0.0000      0.0000      0.0000      0.0000
         9        -0.0000     -0.0759     -0.0000      0.0759      0.0506
        10        -0.0362     -0.0000     -0.0000      0.0362      0.0242

 Excitation energies and oscillator strengths:
 
 Excited state symmetry could not be determined.
 Excited State   1:      Triplet-?Sym    3.3529 eV  369.78 nm  f=0.0000  <S**2>=2.000
       5 ->  9         0.02994
       5 -> 19         0.01316
       8 ->  9         0.70497
       8 -> 14        -0.04692
       8 -> 19         0.03857
       7 <- 15         0.01366
       8 <-  9         0.03750
 This state for optimization and/or second-order correction.
 Total Energy, E(TD-HF/TD-DFT) =  -114.383498268    
 Copying the excited state density for this state as the 1-particle RhoCI density.
 
 Excited state symmetry could not be determined.
 Excited State   2:      Singlet-?Sym    4.0289 eV  307.74 nm  f=0.0000  <S**2>=0.000
       5 ->  9         0.02757
       8 ->  9         0.70541
       8 -> 14        -0.04269
       8 -> 19         0.02491
       8 <-  9        -0.02679
 
 Excited state symmetry could not be determined.
 Excited State   3:      Triplet-?Sym    5.6717 eV  218.60 nm  f=0.0000  <S**2>=2.000
       3 -> 11        -0.01102
       3 -> 20         0.01438
       4 -> 10         0.01986
       4 -> 16        -0.01147
       4 -> 17        -0.01025
       5 -> 12         0.01485
       5 -> 18         0.01126
       6 -> 20        -0.01239
       7 ->  9         0.70945
       7 -> 14        -0.08553
       7 -> 19         0.05946
       7 -> 27        -0.01202
       8 -> 15         0.01177
       4 <- 10         0.01034
       7 <-  9         0.11888
       7 <- 14        -0.02749
       7 <- 19         0.02781
 
 Excited state symmetry could not be determined.
 Excited State   4:      Triplet-?Sym    8.0766 eV  153.51 nm  f=0.0000  <S**2>=2.000
       4 -> 12        -0.03355
       4 -> 18        -0.01251
       5 -> 10        -0.07235
       5 -> 11         0.01169
       5 -> 16         0.01938
       5 -> 17         0.01353
       5 -> 20         0.01039
       6 -> 12        -0.01838
       8 -> 10         0.69784
       8 -> 11         0.03059
       8 -> 13         0.01107
       8 -> 16        -0.06038
       8 -> 17        -0.03050
       8 <- 10         0.01157
 
 Excited state symmetry could not be determined.
 Excited State   5:      Triplet-?Sym    8.1325 eV  152.46 nm  f=0.0000  <S**2>=2.000
       4 ->  9        -0.01710
       4 -> 19        -0.01012
       6 ->  9         0.70318
       6 -> 14        -0.06068
       6 -> 19         0.04359
       7 -> 20        -0.01661
       6 <-  9         0.02438
       7 <- 20        -0.02049
 
 Excited state symmetry could not be determined.
 Excited State   6:      Singlet-?Sym    8.4763 eV  146.27 nm  f=0.1118  <S**2>=0.000
       4 -> 12        -0.01590
       4 -> 18         0.01340
       5 -> 10        -0.01758
       5 -> 11         0.01924
       5 -> 13         0.01250
       5 -> 16        -0.01547
       8 -> 10         0.69493
       8 -> 11         0.11798
       8 -> 13        -0.03729
       8 -> 16        -0.01514
 
 Excited state symmetry could not be determined.
 Excited State   7:      Singlet-?Sym    9.2804 eV  133.60 nm  f=0.0007  <S**2>=0.000
       3 ->  9        -0.03744
       4 ->  9         0.01646
       6 ->  9         0.70439
       6 -> 14        -0.04355
       6 -> 19         0.02699
       6 <-  9        -0.02163
       7 <- 20        -0.01330
 
 Excited state symmetry could not be determined.
 Excited State   8:      Triplet-?Sym    9.3569 eV  132.51 nm  f=0.0000  <S**2>=2.000
       4 -> 15         0.01603
       5 -> 10         0.02211
       5 -> 13        -0.01585
       5 -> 17        -0.01126
       5 -> 22        -0.01243
       8 -> 10        -0.02528
       8 -> 11         0.70198
       8 -> 13        -0.03359
       8 -> 16         0.02511
       8 -> 20        -0.04687
       8 -> 22        -0.03234
 
 Excited state symmetry could not be determined.
 Excited State   9:      Singlet-?Sym    9.6166 eV  128.93 nm  f=0.0484  <S**2>=0.000
       5 -> 10         0.01352
       5 -> 13        -0.02205
       5 -> 16         0.01204
       8 -> 10        -0.11769
       8 -> 11         0.69584
       8 -> 20        -0.02215
       8 -> 22        -0.01945
 
 Excited state symmetry could not be determined.
 Excited State  10:      Singlet-?Sym    9.7045 eV  127.76 nm  f=0.0267  <S**2>=0.000
       3 -> 11         0.01261
       3 -> 20        -0.01767
       4 -> 10        -0.03636
       4 -> 11        -0.01247
       4 -> 13         0.01478
       4 -> 16         0.01593
       4 -> 17         0.01269
       5 -> 12        -0.05109
       5 -> 18        -0.02750
       5 -> 21         0.01740
       6 -> 11        -0.02935
       6 -> 20         0.05643
       7 ->  9         0.58723
       7 -> 14         0.01884
       7 -> 19        -0.01002
       8 -> 12        -0.37380
       8 -> 15        -0.07060
       8 -> 18        -0.06211
       8 -> 21         0.02863
       8 -> 25         0.01198
       3 <- 20        -0.01178
       4 <- 10        -0.01357
       5 <- 12        -0.01596
       5 <- 18        -0.01084
       6 <- 20         0.02405
       7 <-  9        -0.05516
       7 <- 14         0.01663
       7 <- 19        -0.01258
       8 <- 15        -0.01618
       8 <- 18        -0.01055
 SavETr:  write IOETrn=   770 NScale= 10 NData=  16 NLR=1 NState=   10 LETran=     190.

 **********************************************************************

            Population analysis using the SCF Density.

 **********************************************************************

 Alpha  occ. eigenvalues --  -19.26976 -10.38700  -1.17387  -0.73379  -0.59275
 Alpha  occ. eigenvalues --   -0.54694  -0.49553  -0.35839
 Alpha virt. eigenvalues --    0.02453   0.13466   0.19398   0.19550   0.28952
 Alpha virt. eigenvalues --    0.29343   0.34811   0.49266   0.52065   0.52299
 Alpha virt. eigenvalues --    0.59992   0.61233   0.70488   0.80760   1.24031
 Alpha virt. eigenvalues --    1.33594   1.36971   1.37391   1.40003   1.57180
 Alpha virt. eigenvalues --    1.72455   1.78697   1.80523   2.02360   2.15788
 Alpha virt. eigenvalues --    2.16342   2.30973   2.50634   2.53361   2.70243
 Alpha virt. eigenvalues --    2.71502   2.76075   2.77883   2.89572   3.05126
 Alpha virt. eigenvalues --    3.07143   3.26256   3.27838   3.60980   4.25195
 Alpha virt. eigenvalues --   22.01790  43.41883
          Condensed to atoms (all electrons):
               1          2          3          4
     1  C    4.628532   0.523780   0.362913   0.362911
     2  O    0.523780   7.883836  -0.068042  -0.068042
     3  H    0.362913  -0.068042   0.743819  -0.113523
     4  H    0.362911  -0.068042  -0.113523   0.743819
 Mulliken charges:
               1
     1  C    0.121864
     2  O   -0.271532
     3  H    0.074834
     4  H    0.074835
 Sum of Mulliken charges =   0.00000
 Mulliken charges with hydrogens summed into heavy atoms:
               1
     1  C    0.271532
     2  O   -0.271532
 Electronic spatial extent (au):  <R**2>=             70.4517
 Charge=              0.0000 electrons
 Dipole moment (field-independent basis, Debye):
    X=             -2.4218    Y=             -0.0000    Z=             -0.0003  Tot=              2.4218
 Quadrupole moment (field-independent basis, Debye-Ang):
   XX=            -14.1364   YY=            -11.5220   ZZ=            -11.5526
   XY=              0.0000   XZ=             -0.0004   YZ=             -0.0000
 Traceless Quadrupole moment (field-independent basis, Debye-Ang):
   XX=             -1.7327   YY=              0.8816   ZZ=              0.8511
   XY=              0.0000   XZ=             -0.0004   YZ=             -0.0000
 Octapole moment (field-independent basis, Debye-Ang**2):
  XXX=            -15.0322  YYY=             -0.0000  ZZZ=              0.0022  XYY=             -4.9642
  XXY=             -0.0000  XXZ=              0.0009  XZZ=             -3.8422  YZZ=             -0.0000
  YYZ=              0.0012  XYZ=              0.0000
 Hexadecapole moment (field-independent basis, Debye-Ang**3):
 XXXX=            -56.4220 YYYY=            -18.3231 ZZZZ=             -9.9790 XXXY=             -0.0000
 XXXZ=             -0.0021 YYYX=             -0.0000 YYYZ=              0.0001 ZZZX=             -0.0016
 ZZZY=              0.0001 XXYY=            -12.3899 XXZZ=            -10.4376 YYZZ=             -5.0010
 XXYZ=              0.0000 YYXZ=             -0.0010 ZZXY=             -0.0000
 N-N= 3.143135950128D+01 E-N=-3.318791644184D+02  KE= 1.140580155250D+02

 Test job not archived.
 1\1\GINC-BURU\SP\RwB97XD TD-FC\TZVP\C1H2O1\JOHANNES\31-Jan-2024\0\\# t
 d(50-50,nstates=5) wB97XD/TZVP 5D 7F nosymm iop(9/40=2)\\formaldehyde 
 for SO-coupling\\0,1\C,0,-0.131829,-0.000001,-0.000286\O,0,1.065288,0.
 000001,0.00009\H,0,-0.718439,0.939705,0.000097\H,0,-0.718441,-0.939705
 ,0.000136\\Version=ES64L-G16RevB.01\HF=-114.5067163\RMSD=3.651e-09\PG=
 C01 [X(C1H2O1)]\\@


 WOE UNTO THEM THAT CALL EVIL GOOD, AND GOOD EVIL      
 Job cpu time:       0 days  0 hours  0 minutes 19.4 seconds.
 Elapsed time:       0 days  0 hours  0 minutes 19.4 seconds.
 File lengths (MBytes):  RWF=     49 Int=      0 D2E=      0 Chk=      2 Scr=      1
 Normal termination of Gaussian 16 at Wed Jan 31 15:49:40 2024.
