
                                 *****************
                                 * O   R   C   A *
                                 *****************

                                            #,                                       
                                            ###                                      
                                            ####                                     
                                            #####                                    
                                            ######                                   
                                           ########,                                 
                                     ,,################,,,,,                         
                               ,,#################################,,                 
                          ,,##########################################,,             
                       ,#########################################, ''#####,          
                    ,#############################################,,   '####,        
                  ,##################################################,,,,####,       
                ,###########''''           ''''###############################       
              ,#####''   ,,,,##########,,,,          '''####'''          '####       
            ,##' ,,,,###########################,,,                        '##       
           ' ,,###''''                  '''############,,,                           
         ,,##''                                '''############,,,,        ,,,,,,###''
      ,#''                                            '''#######################'''  
     '                                                          ''''####''''         
             ,#######,   #######,   ,#######,      ##                                
            ,#'     '#,  ##    ##  ,#'     '#,    #''#        ######   ,####,        
            ##       ##  ##   ,#'  ##            #'  '#       #        #'  '#        
            ##       ##  #######   ##           ,######,      #####,   #    #        
            '#,     ,#'  ##    ##  '#,     ,#' ,#      #,         ##   #,  ,#        
             '#######'   ##     ##  '#######'  #'      '#     #####' # '####'        



                  #######################################################
                  #                        -***-                        #
                  #          Department of theory and spectroscopy      #
                  #    Directorship and core code : Frank Neese         #
                  #        Max Planck Institute fuer Kohlenforschung    #
                  #                Kaiser Wilhelm Platz 1               #
                  #                 D-45470 Muelheim/Ruhr               #
                  #                      Germany                        #
                  #                                                     #
                  #                  All rights reserved                #
                  #                        -***-                        #
                  #######################################################


                         Program Version 5.0.3 -  RELEASE  -


 With contributions from (in alphabetic order):
   Daniel Aravena         : Magnetic Suceptibility
   Michael Atanasov       : Ab Initio Ligand Field Theory (pilot matlab implementation)
   Alexander A. Auer      : GIAO ZORA, VPT2 properties, NMR spectrum
   Ute Becker             : Parallelization
   Giovanni Bistoni       : ED, misc. LED, open-shell LED, HFLD
   Martin Brehm           : Molecular dynamics
   Dmytro Bykov           : SCF Hessian
   Vijay G. Chilkuri      : MRCI spin determinant printing, contributions to CSF-ICE
   Dipayan Datta          : RHF DLPNO-CCSD density
   Achintya Kumar Dutta   : EOM-CC, STEOM-CC
   Dmitry Ganyushin       : Spin-Orbit,Spin-Spin,Magnetic field MRCI
   Miquel Garcia          : C-PCM and meta-GGA Hessian, CC/C-PCM, Gaussian charge scheme
   Yang Guo               : DLPNO-NEVPT2, F12-NEVPT2, CIM, IAO-localization
   Andreas Hansen         : Spin unrestricted coupled pair/coupled cluster methods
   Benjamin Helmich-Paris : MC-RPA, TRAH-SCF, COSX integrals
   Lee Huntington         : MR-EOM, pCC
   Robert Izsak           : Overlap fitted RIJCOSX, COSX-SCS-MP3, EOM
   Marcus Kettner         : VPT2
   Christian Kollmar      : KDIIS, OOCD, Brueckner-CCSD(T), CCSD density, CASPT2, CASPT2-K
   Simone Kossmann        : Meta GGA functionals, TD-DFT gradient, OOMP2, MP2 Hessian
   Martin Krupicka        : Initial AUTO-CI
   Lucas Lang             : DCDCAS
   Marvin Lechner         : AUTO-CI (C++ implementation), FIC-MRCC
   Dagmar Lenk            : GEPOL surface, SMD
   Dimitrios Liakos       : Extrapolation schemes; Compound Job, initial MDCI parallelization
   Dimitrios Manganas     : Further ROCIS development; embedding schemes
   Dimitrios Pantazis     : SARC Basis sets
   Anastasios Papadopoulos: AUTO-CI, single reference methods and gradients
   Taras Petrenko         : DFT Hessian,TD-DFT gradient, ASA, ECA, R-Raman, ABS, FL, XAS/XES, NRVS
   Peter Pinski           : DLPNO-MP2, DLPNO-MP2 Gradient
   Christoph Reimann      : Effective Core Potentials
   Marius Retegan         : Local ZFS, SOC
   Christoph Riplinger    : Optimizer, TS searches, QM/MM, DLPNO-CCSD(T), (RO)-DLPNO pert. Triples
   Tobias Risthaus        : Range-separated hybrids, TD-DFT gradient, RPA, STAB
   Michael Roemelt        : Original ROCIS implementation
   Masaaki Saitow         : Open-shell DLPNO-CCSD energy and density
   Barbara Sandhoefer     : DKH picture change effects
   Avijit Sen             : IP-ROCIS
   Kantharuban Sivalingam : CASSCF convergence, NEVPT2, FIC-MRCI
   Bernardo de Souza      : ESD, SOC TD-DFT
   Georgi Stoychev        : AutoAux, RI-MP2 NMR, DLPNO-MP2 response
   Willem Van den Heuvel  : Paramagnetic NMR
   Boris Wezisla          : Elementary symmetry handling
   Frank Wennmohs         : Technical directorship


 We gratefully acknowledge several colleagues who have allowed us to
 interface, adapt or use parts of their codes:
   Stefan Grimme, W. Hujo, H. Kruse, P. Pracht,  : VdW corrections, initial TS optimization,
                  C. Bannwarth, S. Ehlert          DFT functionals, gCP, sTDA/sTD-DF
   Ed Valeev, F. Pavosevic, A. Kumar             : LibInt (2-el integral package), F12 methods
   Garnet Chan, S. Sharma, J. Yang, R. Olivares  : DMRG
   Ulf Ekstrom                                   : XCFun DFT Library
   Mihaly Kallay                                 : mrcc  (arbitrary order and MRCC methods)
   Jiri Pittner, Ondrej Demel                    : Mk-CCSD
   Frank Weinhold                                : gennbo (NPA and NBO analysis)
   Christopher J. Cramer and Donald G. Truhlar   : smd solvation model
   Lars Goerigk                                  : TD-DFT with DH, B97 family of functionals
   V. Asgeirsson, H. Jonsson                     : NEB implementation
   FAccTs GmbH                                   : IRC, NEB, NEB-TS, DLPNO-Multilevel, CI-OPT
                                                   MM, QMMM, 2- and 3-layer-ONIOM, Crystal-QMMM,
                                                   LR-CPCM, SF, NACMEs, symmetry and pop. for TD-DFT,
                                                   nearIR, NL-DFT gradient (VV10), updates on ESD,
                                                   ML-optimized integration grids
   S Lehtola, MJT Oliveira, MAL Marques          : LibXC Library
   Liviu Ungur et al                             : ANISO software


 Your calculation uses the libint2 library for the computation of 2-el integrals
 For citations please refer to: http://libint.valeyev.net

 Your ORCA version has been built with support for libXC version: 5.1.0
 For citations please refer to: https://tddft.org/programs/libxc/

 This ORCA versions uses:
   CBLAS   interface :  Fast vector & matrix operations
   LAPACKE interface :  Fast linear algebra routines
   SCALAPACK package :  Parallel linear algebra routines
   Shared memory     :  Shared parallel matrices
   BLAS/LAPACK       :  OpenBLAS 0.3.15  USE64BITINT DYNAMIC_ARCH NO_AFFINITY Haswell SINGLE_THREADED
        Core in use  :  Haswell
   Copyright (c) 2011-2014, The OpenBLAS Project


================================================================================

----- Orbital basis set information -----
Your calculation utilizes the basis: 3-21G
   H-Ne       : J. S. Binkley, J. A. Pople and W. J. Hehre, J. Am. Chem. Soc. 102 939 (1980).
   Na-Ar      : M. S. Gordon, J. S. Binkley, J. A. Pople, W. J. Pietro and W.J. Hehre, J. Am. Chem. Soc. 104, 2797 (1983).
   K-Ca, Ga-Kr: K. D. Dobbs and W. J. Hehre, J. Comput. Chem. 7, 359 (1986).
   Sc-Zn      : K. D. Dobbs and W. J. Hehre, J. Comput. Chem. 8, 861 (1987).
   Y-Cd       : K. D. Dobbs and W. J. Hehre, J. Comput. Chem. 8, 880 (1987).

================================================================================
                                        WARNINGS
                       Please study these warnings very carefully!
================================================================================

INFO   : Checking CIS options ...

WARNING: CIS/ROCIS methods need fully converged wavefunctions
  ===> : Setting SCFConvForced true
         You can overwrite this default with %scf ConvForced false 


INFO   : the flag for use of the SHARK integral package has been found!

================================================================================
                                       INPUT FILE
================================================================================
NAME = 00_h2o2_anion.inp
|  1> ! uhf 3-21g
|  2> 
|  3> %tddft
|  4>  tda true
|  5>  nroots 3
|  6> end
|  7> 
|  8> *xyz -1 2
|  9>  H                 -0.35738652   -2.42732105    0.01869782
| 10>  H                 -0.55575507    0.31681832    1.27512527
| 11>  O                 -0.71404094   -1.41851105    0.01869782
| 12>  O                 -0.20069873   -0.69255477    1.27610279
| 13> *
| 14> 
| 15>                          ****END OF INPUT****
================================================================================

                       ****************************
                       * Single Point Calculation *
                       ****************************

---------------------------------
CARTESIAN COORDINATES (ANGSTROEM)
---------------------------------
  H     -0.357387   -2.427321    0.018698
  H     -0.555755    0.316818    1.275125
  O     -0.714041   -1.418511    0.018698
  O     -0.200699   -0.692555    1.276103

----------------------------
CARTESIAN COORDINATES (A.U.)
----------------------------
  NO LB      ZA    FRAG     MASS         X           Y           Z
   0 H     1.0000    0     1.008   -0.675363   -4.586972    0.035334
   1 H     1.0000    0     1.008   -1.050225    0.598700    2.409638
   2 O     8.0000    0    15.999   -1.349342   -2.680597    0.035334
   3 O     8.0000    0    15.999   -0.379266   -1.308739    2.411485

--------------------------------
INTERNAL COORDINATES (ANGSTROEM)
--------------------------------
 H      0   0   0     0.000000000000     0.00000000     0.00000000
 H      1   0   0     3.024609214548     0.00000000     0.00000000
 O      1   2   0     1.069999995984    28.68789848     0.00000000
 O      2   1   3     1.069999997634    28.68789843   179.78179597

---------------------------
INTERNAL COORDINATES (A.U.)
---------------------------
 H      0   0   0     0.000000000000     0.00000000     0.00000000
 H      1   0   0     5.715683077630     0.00000000     0.00000000
 O      1   2   0     2.022006955706    28.68789848     0.00000000
 O      2   1   3     2.022006958824    28.68789843   179.78179597

---------------------
BASIS SET INFORMATION
---------------------
There are 2 groups of distinct atoms

 Group   1 Type H   : 3s contracted to 2s pattern {21}
 Group   2 Type O   : 6s3p contracted to 3s2p pattern {321/21}

Atom   0H    basis set group =>   1
Atom   1H    basis set group =>   1
Atom   2O    basis set group =>   2
Atom   3O    basis set group =>   2
------------------------------------------------------------------------------
                           ORCA GTO INTEGRAL CALCULATION
------------------------------------------------------------------------------
------------------------------------------------------------------------------
                   ___                                                        
                  /   \      - P O W E R E D   B Y -                         
                 /     \                                                     
                 |  |  |   _    _      __       _____    __    __             
                 |  |  |  | |  | |    /  \     |  _  \  |  |  /  |          
                  \  \/   | |  | |   /    \    | | | |  |  | /  /          
                 / \  \   | |__| |  /  /\  \   | |_| |  |  |/  /          
                |  |  |   |  __  | /  /__\  \  |    /   |      \           
                |  |  |   | |  | | |   __   |  |    \   |  |\   \          
                \     /   | |  | | |  |  |  |  | |\  \  |  | \   \       
                 \___/    |_|  |_| |__|  |__|  |_| \__\ |__|  \__/        
                                                                              
                      - O R C A' S   B I G   F R I E N D -                    
                                      &                                       
                       - I N T E G R A L  F E E D E R -                       
                                                                              
 v1 FN, 2020, v2 2021                                                         
------------------------------------------------------------------------------


Reading SHARK input file 00_h2o2_anion.SHARKINP.tmp ... ok
----------------------
SHARK INTEGRAL PACKAGE
----------------------

Number of atoms                             ...      4
Number of basis functions                   ...     22
Number of shells                            ...     14
Maximum angular momentum                    ...      1
Integral batch strategy                     ... SHARK/LIBINT Hybrid
RI-J (if used) integral strategy            ... SPLIT-RIJ (Revised 2003 algorithm where possible)
Printlevel                                  ...      1
Contraction scheme used                     ... SEGMENTED contraction
Coulomb Range Separation                    ... NOT USED
Exchange Range Separation                   ... NOT USED
Finite Nucleus Model                        ... NOT USED
Auxiliary Coulomb fitting basis             ... NOT available
Auxiliary J/K fitting basis                 ... NOT available
Auxiliary Correlation fitting basis         ... NOT available
Auxiliary 'external' fitting basis          ... NOT available
Integral threshold                          ...     1.000000e-10
Primitive cut-off                           ...     1.000000e-11
Primitive pair pre-selection threshold      ...     1.000000e-11

Calculating pre-screening integrals         ... done (  0.0 sec) Dimension = 14
Organizing shell pair data                  ... done (  0.0 sec)
Shell pair information
Total number of shell pairs                 ...       105
Shell pairs after pre-screening             ...       104
Total number of primitive shell pairs       ...       312
Primitive shell pairs kept                  ...       276
          la=0 lb=0:     54 shell pairs
          la=1 lb=0:     40 shell pairs
          la=1 lb=1:     10 shell pairs

Calculating one electron integrals          ... done (  0.0 sec)
Calculating Nuclear repulsion               ... done (  0.0 sec) ENN=     34.020915292001 Eh

SHARK setup successfully completed in   0.0 seconds

Maximum memory used throughout the entire GTOINT-calculation: 3.9 MB
-------------------------------------------------------------------------------
                                 ORCA SCF
-------------------------------------------------------------------------------

------------
SCF SETTINGS
------------
Hamiltonian:
 Ab initio Hamiltonian  Method          .... Hartree-Fock(GTOs)


General Settings:
 Integral files         IntName         .... 00_h2o2_anion
 Hartree-Fock type      HFTyp           .... UHF
 Total Charge           Charge          ....   -1
 Multiplicity           Mult            ....    2
 Number of Electrons    NEL             ....   19
 Basis Dimension        Dim             ....   22
 Nuclear Repulsion      ENuc            ....     34.0209152920 Eh

Convergence Acceleration:
 DIIS                   CNVDIIS         .... on
   Start iteration      DIISMaxIt       ....    12
   Startup error        DIISStart       ....  0.200000
   # of expansion vecs  DIISMaxEq       ....     5
   Bias factor          DIISBfac        ....   1.050
   Max. coefficient     DIISMaxC        ....  10.000
 Trust-Rad. Augm. Hess. CNVTRAH         .... auto
   Auto Start mean grad. ratio tolernc. ....  1.125000
   Auto Start start iteration           ....    20
   Auto Start num. interpolation iter.  ....    10
   Max. Number of Micro iterations      ....    16
   Max. Number of Macro iterations      .... Maxiter - #DIIS iter
   Number of Davidson start vectors     ....     2
   Converg. threshold I  (grad. norm)   ....   5.000e-05
   Converg. threshold II (energy diff.) ....   1.000e-06
   Grad. Scal. Fac. for Micro threshold ....   0.100
   Minimum threshold for Micro iter.    ....   0.010
   NR start threshold (gradient norm)   ....   0.001
   Initial trust radius                 ....   0.400
   Minimum AH scaling param. (alpha)    ....   1.000
   Maximum AH scaling param. (alpha)    .... 1000.000
   Orbital update algorithm             .... Taylor
   White noise on init. David. guess    .... on
   Maximum white noise                  ....   0.010
   Quad. conv. algorithm                .... NR
 SOSCF                  CNVSOSCF        .... off
 Level Shifting         CNVShift        .... on
   Level shift para.    LevelShift      ....    0.2500
   Turn off err/grad.   ShiftErr        ....    0.0010
 Zerner damping         CNVZerner       .... off
 Static damping         CNVDamp         .... on
   Fraction old density DampFac         ....    0.7000
   Max. Damping (<1)    DampMax         ....    0.9800
   Min. Damping (>=0)   DampMin         ....    0.0000
   Turn off err/grad.   DampErr         ....    0.1000
 Fernandez-Rico         CNVRico         .... off

SCF Procedure:
 Maximum # iterations   MaxIter         ....   125
 SCF integral mode      SCFMode         .... Direct
   Integral package                     .... SHARK and LIBINT hybrid scheme
 Reset frequency        DirectResetFreq ....    20
 Integral Threshold     Thresh          ....  1.000e-10 Eh
 Primitive CutOff       TCut            ....  1.000e-11 Eh

Convergence Tolerance:
 Convergence Check Mode ConvCheckMode   .... Total+1el-Energy
 Convergence forced     ConvForced      .... 1
 Energy Change          TolE            ....  1.000e-06 Eh
 1-El. energy change                    ....  1.000e-03 Eh
 DIIS Error             TolErr          ....  1.000e-06


Diagonalization of the overlap matrix:
Smallest eigenvalue                        ... 1.022e-01
Time for diagonalization                   ...    0.002 sec
Threshold for overlap eigenvalues          ... 1.000e-08
Number of eigenvalues below threshold      ... 0
Time for construction of square roots      ...    0.001 sec
Total time needed                          ...    0.003 sec

Time for model grid setup =    0.015 sec

------------------------------
INITIAL GUESS: MODEL POTENTIAL
------------------------------
Loading Hartree-Fock densities                     ... done
Calculating cut-offs                               ... done
Initializing the effective Hamiltonian             ... done
Setting up the integral package (SHARK)            ... done
Starting the Coulomb interaction                   ... done (   0.0 sec)
Reading the grid                                   ... done
Mapping shells                                     ... done
Starting the XC term evaluation                    ... done (   0.0 sec)
Transforming the Hamiltonian                       ... done (   0.0 sec)
Diagonalizing the Hamiltonian                      ... done (   0.0 sec)
Back transforming the eigenvectors                 ... done (   0.0 sec)
Now organizing SCF variables                       ... done
                      ------------------
                      INITIAL GUESS DONE (   0.0 sec)
                      ------------------
--------------
SCF ITERATIONS
--------------
ITER       Energy         Delta-E        Max-DP      RMS-DP      [F,P]     Damp
               ***  Starting incremental Fock matrix formation  ***
  0   -149.5479746668   0.000000000000 0.04119792  0.00558157  0.1796863 0.7000
  1   -149.6308047750  -0.082830108202 0.03354925  0.00431167  0.1177655 0.7000
                               ***Turning on DIIS***
  2   -149.6795403992  -0.048735624160 0.08142883  0.00916263  0.0727483 0.0000
  3   -149.4292610288   0.250279370353 0.03334526  0.00319389  0.0418565 0.0000
  4   -149.7971160789  -0.367855050063 0.01063503  0.00113425  0.0064992 0.0000
  5   -149.7985900634  -0.001473984449 0.00898273  0.00088302  0.0036443 0.0000
  6   -149.7882012795   0.010388783817 0.00639072  0.00067637  0.0022039 0.0000
  7   -149.7906965746  -0.002495295020 0.00656275  0.00073138  0.0014291 0.0000
  8   -149.7905248526   0.000171721942 0.00897382  0.00098205  0.0009484 0.0000
  9   -149.7868922923   0.003632560287 0.00521818  0.00056100  0.0006103 0.0000
 10   -149.7839854319   0.002906860469 0.00309819  0.00030939  0.0003506 0.0000
 11   -149.7843249841  -0.000339552215 0.00299890  0.00029404  0.0003288 0.0000
 12   -149.7829583528   0.001366631227 0.00121534  0.00011415  0.0002378 0.0000
 13   -149.7822817680   0.000676584867 0.00039428  0.00004378  0.0001166 0.0000
 14   -149.7819637551   0.000318012833 0.00015529  0.00001656  0.0000399 0.0000
 15   -149.7820916669  -0.000127911742 0.00003553  0.00000345  0.0000119 0.0000
 16   -149.7821187302  -0.000027063275 0.00003973  0.00000404  0.0000047 0.0000
 17   -149.7821320108  -0.000013280618 0.00003234  0.00000331  0.0000032 0.0000
                            ***DIIS convergence achieved***

               *****************************************************
               *                     SUCCESS                       *
               *           SCF CONVERGED AFTER  18 CYCLES          *
               *****************************************************


----------------
TOTAL SCF ENERGY
----------------

Total Energy       :         -149.78211143 Eh           -4075.77846 eV

Components:
Nuclear Repulsion  :           34.02091529 Eh             925.75617 eV
Electronic Energy  :         -183.80302673 Eh           -5001.53463 eV
One Electron Energy:         -281.88395651 Eh           -7670.45241 eV
Two Electron Energy:           98.08092978 Eh            2668.91778 eV

Virial components:
Potential Energy   :         -299.90484412 Eh           -8160.82570 eV
Kinetic Energy     :          150.12273269 Eh            4085.04724 eV
Virial Ratio       :            1.99773105


---------------
SCF CONVERGENCE
---------------

  Last Energy change         ...    2.0577e-05  Tolerance :   1.0000e-06
  Last MAX-Density change    ...    8.3013e-06  Tolerance :   1.0000e-05
  Last RMS-Density change    ...    8.1858e-07  Tolerance :   1.0000e-06
  Last DIIS Error            ...    9.7418e-07  Tolerance :   1.0000e-06

             **** THE GBW FILE WAS UPDATED (00_h2o2_anion.gbw) ****
             **** DENSITY 00_h2o2_anion.scfp WAS UPDATED ****
             **** ENERGY FILE WAS UPDATED (00_h2o2_anion.en.tmp) ****
----------------------
UHF SPIN CONTAMINATION
----------------------

Expectation value of <S**2>     :     0.765826
Ideal value S*(S+1) for S=0.5   :     0.750000
Deviation                       :     0.015826

             **** THE GBW FILE WAS UPDATED (00_h2o2_anion.gbw) ****
             **** DENSITY 00_h2o2_anion.scfp WAS UPDATED ****
----------------
ORBITAL ENERGIES
----------------
                 SPIN UP ORBITALS
  NO   OCC          E(Eh)            E(eV) 
   0   1.0000     -20.094230      -546.7918 
   1   1.0000     -20.093583      -546.7742 
   2   1.0000      -1.041792       -28.3486 
   3   1.0000      -0.842664       -22.9301 
   4   1.0000      -0.311479        -8.4758 
   5   1.0000      -0.283814        -7.7230 
   6   1.0000      -0.213253        -5.8029 
   7   1.0000      -0.175256        -4.7690 
   8   1.0000      -0.079958        -2.1758 
   9   1.0000       0.074864         2.0371 
  10   0.0000       0.533354        14.5133 
  11   0.0000       0.603405        16.4195 
  12   0.0000       1.434095        39.0237 
  13   0.0000       1.512403        41.1546 
  14   0.0000       2.049417        55.7675 
  15   0.0000       2.081387        56.6374 
  16   0.0000       2.221874        60.4603 
  17   0.0000       2.300694        62.6051 
  18   0.0000       2.308374        62.8141 
  19   0.0000       2.502022        68.0835 
  20   0.0000       3.159311        85.9692 
  21   0.0000       3.642133        99.1075 

                 SPIN DOWN ORBITALS
  NO   OCC          E(Eh)            E(eV) 
   0   1.0000     -20.067705      -546.0700 
   1   1.0000     -20.067313      -546.0593 
   2   1.0000      -0.957338       -26.0505 
   3   1.0000      -0.775522       -21.1030 
   4   1.0000      -0.253139        -6.8883 
   5   1.0000      -0.229408        -6.2425 
   6   1.0000      -0.185150        -5.0382 
   7   1.0000      -0.079343        -2.1590 
   8   1.0000      -0.045988        -1.2514 
   9   0.0000       0.552215        15.0265 
  10   0.0000       0.567805        15.4508 
  11   0.0000       0.713944        19.4274 
  12   0.0000       1.452157        39.5152 
  13   0.0000       1.530291        41.6413 
  14   0.0000       2.068738        56.2932 
  15   0.0000       2.144077        58.3433 
  16   0.0000       2.242480        61.0210 
  17   0.0000       2.326927        63.3189 
  18   0.0000       2.384925        64.8971 
  19   0.0000       2.529984        68.8444 
  20   0.0000       3.214386        87.4679 
  21   0.0000       3.687561       100.3436 

                    ********************************
                    * MULLIKEN POPULATION ANALYSIS *
                    ********************************

--------------------------------------------
MULLIKEN ATOMIC CHARGES AND SPIN POPULATIONS
--------------------------------------------
   0 H :    0.077267    0.112701
   1 H :    0.077267    0.112701
   2 O :   -0.577267    0.387299
   3 O :   -0.577267    0.387299
Sum of atomic charges         :   -1.0000000
Sum of atomic spin populations:    1.0000000

-----------------------------------------------------
MULLIKEN REDUCED ORBITAL CHARGES AND SPIN POPULATIONS
-----------------------------------------------------
CHARGE
  0 H s       :     0.922733  s :     0.922733
  1 H s       :     0.922733  s :     0.922733
  2 O s       :     3.916433  s :     3.916433
      pz      :     1.630154  p :     4.660834
      px      :     1.865583
      py      :     1.165097
  3 O s       :     3.916433  s :     3.916433
      pz      :     1.630173  p :     4.660834
      px      :     1.866336
      py      :     1.164324

SPIN
  0 H s       :     0.112701  s :     0.112701
  1 H s       :     0.112701  s :     0.112701
  2 O s       :     0.050016  s :     0.050016
      pz      :     0.271672  p :     0.337283
      px      :     0.089636
      py      :    -0.024025
  3 O s       :     0.050016  s :     0.050016
      pz      :     0.272034  p :     0.337283
      px      :     0.089331
      py      :    -0.024082


                     *******************************
                     * LOEWDIN POPULATION ANALYSIS *
                     *******************************

-------------------------------------------
LOEWDIN ATOMIC CHARGES AND SPIN POPULATIONS
-------------------------------------------
   0 H :    0.017286    0.089486
   1 H :    0.017286    0.089486
   2 O :   -0.517286    0.410514
   3 O :   -0.517286    0.410514

----------------------------------------------------
LOEWDIN REDUCED ORBITAL CHARGES AND SPIN POPULATIONS
----------------------------------------------------
CHARGE
  0 H s       :     0.982714  s :     0.982714
  1 H s       :     0.982714  s :     0.982714
  2 O s       :     3.796848  s :     3.796848
      pz      :     1.651015  p :     4.720438
      px      :     1.872643
      py      :     1.196780
  3 O s       :     3.796848  s :     3.796848
      pz      :     1.651040  p :     4.720438
      px      :     1.873360
      py      :     1.196038

SPIN
  0 H s       :     0.089486  s :     0.089486
  1 H s       :     0.089486  s :     0.089486
  2 O s       :     0.081644  s :     0.081644
      pz      :     0.259696  p :     0.328869
      px      :     0.087315
      py      :    -0.018142
  3 O s       :     0.081644  s :     0.081644
      pz      :     0.260048  p :     0.328869
      px      :     0.087011
      py      :    -0.018190


                      *****************************
                      * MAYER POPULATION ANALYSIS *
                      *****************************

  NA   - Mulliken gross atomic population
  ZA   - Total nuclear charge
  QA   - Mulliken gross atomic charge
  VA   - Mayer's total valence
  BVA  - Mayer's bonded valence
  FA   - Mayer's free valence

  ATOM       NA         ZA         QA         VA         BVA        FA
  0 H      0.9227     1.0000     0.0773     0.9861     0.9730     0.0131
  1 H      0.9227     1.0000     0.0773     0.9861     0.9730     0.0131
  2 O      8.5773     8.0000    -0.5773     1.6075     1.4005     0.2070
  3 O      8.5773     8.0000    -0.5773     1.6075     1.4005     0.2070

  Mayer bond orders larger than 0.100000
B(  0-H ,  2-O ) :   0.9260 B(  1-H ,  3-O ) :   0.9260 B(  2-O ,  3-O ) :   0.4439 


-------
TIMINGS
-------

Total SCF time: 0 days 0 hours 0 min 0 sec 

Total time                  ....       0.174 sec
Sum of individual times     ....       0.091 sec  ( 52.1%)

Fock matrix formation       ....       0.057 sec  ( 32.6%)
Diagonalization             ....       0.004 sec  (  2.4%)
Density matrix formation    ....       0.000 sec  (  0.1%)
Population analysis         ....       0.001 sec  (  0.8%)
Initial guess               ....       0.010 sec  (  5.9%)
Orbital Transformation      ....       0.000 sec  (  0.0%)
Orbital Orthonormalization  ....       0.000 sec  (  0.0%)
DIIS solution               ....       0.003 sec  (  1.9%)

Maximum memory used throughout the entire SCF-calculation: 223.8 MB
------------------------------------------------------------------------------
                         ORCA CIS CALCULATION
------------------------------------------------------------------------------

Input orbitals are from        ... 00_h2o2_anion.gbw
CI-vector output               ... 00_h2o2_anion.cis
Tamm-Dancoff approximation     ... operative
CIS-Integral strategy          ... AO-integrals
Integral handling              ... AO integral Direct
Max. core memory used          ... 512 MB
Reference state                ... UHF
Follow IRoot                   ... off
Number of operators            ... 2
Orbital ranges used for CIS calculation:
 Operator 0:  Orbitals   2...  9  to  10... 21
 Operator 1:  Orbitals   2...  8  to   9... 21
XAS localization array:
 Operator 0:  Orbitals  -1... -1
 Operator 1:  Orbitals  -1... -1

------------------------
DAVIDSON-DIAGONALIZATION
------------------------

Dimension of the eigenvalue problem            ...    187
Number of roots to be determined               ...      3
Maximum size of the expansion space            ...     30
Maximum number of iterations                   ...    100
Convergence tolerance for the residual         ...    1.000e-06
Convergence tolerance for the energies         ...    1.000e-06
Orthogonality tolerance                        ...    1.000e-14
Level Shift                                    ...    0.000e+00
Constructing the preconditioner                ... o.k.
Building the initial guess                     ... o.k.
Number of trial vectors determined             ...     30


                       ****Iteration    0****

   Memory handling for direct AO based CIS:
   Memory per vector needed      ...     1 MB
   Memory needed                 ...     0 MB
   Memory available              ...   512 MB
   Number of vectors per batch   ...   512
   Number of batches             ...     1
   Time for densities:            0.001
   SHARK[1a]
   Time for J+K (Direct):         0.015
   Time for Sigma-Completion:     0.000
   Size of expansion space: 9
   Lowest Energy          :     0.139274938979
   Maximum Energy change  :     0.253983790670 (vector 2)
   Maximum residual norm  :     0.036861624747

                       ****Iteration    1****
   Time for densities:            0.000
   SHARK[1a]
   Time for J+K (Direct):         0.009
   Time for Sigma-Completion:     0.000
   Size of expansion space: 12
   Lowest Energy          :     0.103273802956
   Maximum Energy change  :     0.061348111723 (vector 2)
   Maximum residual norm  :     0.005543603206

                       ****Iteration    2****
   Time for densities:            0.000
   SHARK[1a]
   Time for J+K (Direct):         0.008
   Time for Sigma-Completion:     0.000
   Size of expansion space: 15
   Lowest Energy          :     0.101550313859
   Maximum Energy change  :     0.003712816127 (vector 1)
   Maximum residual norm  :     0.000574895470

                       ****Iteration    3****
   Time for densities:            0.000
   SHARK[1a]
   Time for J+K (Direct):         0.008
   Time for Sigma-Completion:     0.000
   Size of expansion space: 18
   Lowest Energy          :     0.101449881931
   Maximum Energy change  :     0.002144745575 (vector 2)
   Maximum residual norm  :     0.000204335543

                       ****Iteration    4****
   Time for densities:            0.000
   SHARK[1a]
   Time for J+K (Direct):         0.008
   Time for Sigma-Completion:     0.000
   Size of expansion space: 21
   Lowest Energy          :     0.101433519530
   Maximum Energy change  :     0.000294232451 (vector 2)
   Maximum residual norm  :     0.000059463479

                       ****Iteration    5****
   Time for densities:            0.000
   SHARK[1a]
   Time for J+K (Direct):         0.008
   Time for Sigma-Completion:     0.000
   Size of expansion space: 24
   Lowest Energy          :     0.101428723857
   Maximum Energy change  :     0.000339791273 (vector 2)
   Maximum residual norm  :     0.000073874503

                       ****Iteration    6****
   Time for densities:            0.000
   SHARK[1a]
   Time for J+K (Direct):         0.008
   Time for Sigma-Completion:     0.000
   Size of expansion space: 27
   Lowest Energy          :     0.101428621290
   Maximum Energy change  :     0.000035955637 (vector 2)
   Maximum residual norm  :     0.000000580229

      *** CONVERGENCE OF RESIDUAL NORM REACHED ***

Storing the converged CI vectors               ... 00_h2o2_anion.cis2

                 *** DAVIDSON DONE ***

Total time for solving the CIS problem:     0.088sec

------------------
CIS EXCITED STATES
------------------

the weight of the individual excitations are printed if larger than 1.0e-02

STATE  1:  E=   0.101429 au      2.760 eV    22261.0 cm**-1 <S**2> =   0.835794
     4a ->  11a  :     0.037600 (c= -0.19390721)
     7a ->  11a  :     0.016032 (c= -0.12661594)
     9a ->  10a  :     0.917947 (c=  0.95809558)

STATE  2:  E=   0.137824 au      3.750 eV    30248.8 cm**-1 <S**2> =   0.860214
     4a ->  10a  :     0.042852 (c=  0.20700671)
     5a ->  11a  :     0.013363 (c= -0.11559694)
     7a ->  10a  :     0.033162 (c=  0.18210504)
     9a ->  11a  :     0.869170 (c= -0.93229281)
     5b ->  10b  :     0.010640 (c=  0.10314959)

STATE  3:  E=   0.186742 au      5.082 eV    40985.1 cm**-1 <S**2> =   0.983295
     6b ->  10b  :     0.069286 (c=  0.26322238)
     8b ->   9b  :     0.708693 (c= -0.84183903)
     8b ->  11b  :     0.199395 (c=  0.44653710)


----------------------
CIS-EXCITATION SPECTRA
----------------------

Center of mass = ( -0.8642, -1.9946,  1.2234)
Calculating the Dipole integrals                  ... done
Transforming integrals                            ... done
Calculating the Linear Momentum integrals         ... done
Transforming integrals                            ... done
Calculating angular momentum integrals            ... done
Transforming integrals                            ... done

-----------------------------------------------------------------------------
         ABSORPTION SPECTRUM VIA TRANSITION ELECTRIC DIPOLE MOMENTS
-----------------------------------------------------------------------------
State   Energy    Wavelength  fosc         T2        TX        TY        TZ  
        (cm-1)      (nm)                 (au**2)    (au)      (au)      (au) 
-----------------------------------------------------------------------------
   1   22261.0    449.2   0.061637792   0.91154   0.14330  -0.90012  -0.28423
   2   30248.8    330.6   0.000000021   0.00000  -0.00039  -0.00014   0.00024
   3   40985.1    244.0   0.000435488   0.00350   0.04832   0.01703  -0.02956

-----------------------------------------------------------------------------
         ABSORPTION SPECTRUM VIA TRANSITION VELOCITY DIPOLE MOMENTS
-----------------------------------------------------------------------------
State   Energy    Wavelength   fosc        P2         PX        PY        PZ  
        (cm-1)      (nm)                 (au**2)     (au)      (au)      (au) 
-----------------------------------------------------------------------------
   1   22261.0    449.2   0.089371305   0.01360   0.03631   0.05937   0.09356
   2   30248.8    330.6   0.000000008   0.00000  -0.00003  -0.00001   0.00002
   3   40985.1    244.0   0.033167446   0.00929   0.07874   0.02775  -0.04817

-------------------------------------------------------------------
                             CD SPECTRUM
-------------------------------------------------------------------
State  Energy     Wavelength     R         MX        MY        MZ   
       (cm-1)       (nm)     (1e40*cgs)   (au)      (au)      (au)  
-------------------------------------------------------------------
   1   22261.0    449.2     -0.04626  -0.00008   0.00012  -0.00007
   2   30248.8    330.6      0.05421  -0.19750  -0.06959   0.12081
   3   40985.1    244.0      0.00246   0.00007   0.00003  -0.00004

-------------------------------------------------------------------
         CD SPECTRUM VIA TRANSITION VELOCITY DIPOLE MOMENTS        
-------------------------------------------------------------------
State  Energy     Wavelength     R         MX        MY        MZ   
       (cm-1)       (nm)     (1e40*cgs)   (au)      (au)      (au)  
-------------------------------------------------------------------
   1   22261.0    449.2     -0.01113  -0.00008   0.00012  -0.00007
   2   30248.8    330.6      0.03344  -0.19750  -0.06959   0.12081
   3   40985.1    244.0      0.02150   0.00007   0.00003  -0.00004

Total run time:        0.175 sec

           *** ORCA-CIS/TD-DFT FINISHED WITHOUT ERROR ***

Maximum memory used throughout the entire CIS-calculation: 41.0 MB

-----------------------
CIS/TD-DFT TOTAL ENERGY
-----------------------

    E(SCF)  =   -149.782111433 Eh
    DE(CIS) =      0.101428621 Eh (Root  1)
    ----------------------------- ---------
    E(tot)  =   -149.680682812 Eh


-------------------------   --------------------
FINAL SINGLE POINT ENERGY      -149.680682812044
-------------------------   --------------------


                            ***************************************
                            *     ORCA property calculations      *
                            ***************************************

                                    ---------------------
                                    Active property flags
                                    ---------------------
   (+) Dipole Moment


------------------------------------------------------------------------------
                       ORCA ELECTRIC PROPERTIES CALCULATION
------------------------------------------------------------------------------

Dipole Moment Calculation                       ... on
Quadrupole Moment Calculation                   ... off
Polarizability Calculation                      ... off
GBWName                                         ... 00_h2o2_anion.gbw
Electron density                                ... 00_h2o2_anion.scfp
The origin for moment calculation is the CENTER OF MASS  = (-0.864214, -1.994637  1.223355)

-------------
DIPOLE MOMENT
-------------
                                X             Y             Z
Electronic contribution:     -0.00094      -0.00033       0.00058
Nuclear contribution   :      0.00141       0.00050      -0.00086
                        -----------------------------------------
Total Dipole Moment    :      0.00047       0.00016      -0.00029
                        -----------------------------------------
Magnitude (a.u.)       :      0.00057
Magnitude (Debye)      :      0.00145



--------------------
Rotational spectrum 
--------------------
 
Rotational constants in cm-1:     9.440074     0.773408     0.714842 
Rotational constants in MHz : 283006.304814 23186.173979 21430.423295 

 Dipole components along the rotational axes: 
x,y,z [a.u.] :     0.000000    -0.000000    -0.000572 
x,y,z [Debye]:     0.000000    -0.000000    -0.001454 

 

Timings for individual modules:

Sum of individual times         ...        0.442 sec (=   0.007 min)
GTO integral calculation        ...        0.057 sec (=   0.001 min)  13.0 %
SCF iterations                  ...        0.193 sec (=   0.003 min)  43.7 %
CIS module                      ...        0.191 sec (=   0.003 min)  43.4 %
                             ****ORCA TERMINATED NORMALLY****
TOTAL RUN TIME: 0 days 0 hours 0 minutes 0 seconds 505 msec
