 Entering Gaussian System, Link 0=g16
 Input=04_doublemol.gjf
 Output=04_doublemol.log
 Initial command:
 /usr/remote/gaussian/g16/l1.exe "/tmp/Gau-22365.inp" -scrdir="/tmp/"
 Entering Link 1 = /usr/remote/gaussian/g16/l1.exe PID=     22366.
  
 Copyright (c) 1988,1990,1992,1993,1995,1998,2003,2009,2016,
            Gaussian, Inc.  All Rights Reserved.
  
 This is part of the Gaussian(R) 16 program.  It is based on
 the Gaussian(R) 09 system (copyright 2009, Gaussian, Inc.),
 the Gaussian(R) 03 system (copyright 2003, Gaussian, Inc.),
 the Gaussian(R) 98 system (copyright 1998, Gaussian, Inc.),
 the Gaussian(R) 94 system (copyright 1995, Gaussian, Inc.),
 the Gaussian 92(TM) system (copyright 1992, Gaussian, Inc.),
 the Gaussian 90(TM) system (copyright 1990, Gaussian, Inc.),
 the Gaussian 88(TM) system (copyright 1988, Gaussian, Inc.),
 the Gaussian 86(TM) system (copyright 1986, Carnegie Mellon
 University), and the Gaussian 82(TM) system (copyright 1983,
 Carnegie Mellon University). Gaussian is a federally registered
 trademark of Gaussian, Inc.
  
 This software contains proprietary and confidential information,
 including trade secrets, belonging to Gaussian, Inc.
  
 This software is provided under written license and may be
 used, copied, transmitted, or stored only in accord with that
 written license.
  
 The following legend is applicable only to US Government
 contracts under FAR:
  
                    RESTRICTED RIGHTS LEGEND
  
 Use, reproduction and disclosure by the US Government is
 subject to restrictions as set forth in subparagraphs (a)
 and (c) of the Commercial Computer Software - Restricted
 Rights clause in FAR 52.227-19.
  
 Gaussian, Inc.
 340 Quinnipiac St., Bldg. 40, Wallingford CT 06492
  
  
 ---------------------------------------------------------------
 Warning -- This program may not be used in any manner that
 competes with the business of Gaussian, Inc. or will provide
 assistance to any competitor of Gaussian, Inc.  The licensee
 of this program is prohibited from giving any competitor of
 Gaussian, Inc. access to this program.  By using this program,
 the user acknowledges that Gaussian, Inc. is engaged in the
 business of creating and licensing software in the field of
 computational chemistry and represents and warrants to the
 licensee that it is not a competitor of Gaussian, Inc. and that
 it will not use this program in any manner prohibited above.
 ---------------------------------------------------------------
  

 Cite this work as:
 Gaussian 16, Revision A.03,
 M. J. Frisch, G. W. Trucks, H. B. Schlegel, G. E. Scuseria, 
 M. A. Robb, J. R. Cheeseman, G. Scalmani, V. Barone, 
 G. A. Petersson, H. Nakatsuji, X. Li, M. Caricato, A. V. Marenich, 
 J. Bloino, B. G. Janesko, R. Gomperts, B. Mennucci, H. P. Hratchian, 
 J. V. Ortiz, A. F. Izmaylov, J. L. Sonnenberg, D. Williams-Young, 
 F. Ding, F. Lipparini, F. Egidi, J. Goings, B. Peng, A. Petrone, 
 T. Henderson, D. Ranasinghe, V. G. Zakrzewski, J. Gao, N. Rega, 
 G. Zheng, W. Liang, M. Hada, M. Ehara, K. Toyota, R. Fukuda, 
 J. Hasegawa, M. Ishida, T. Nakajima, Y. Honda, O. Kitao, H. Nakai, 
 T. Vreven, K. Throssell, J. A. Montgomery, Jr., J. E. Peralta, 
 F. Ogliaro, M. J. Bearpark, J. J. Heyd, E. N. Brothers, K. N. Kudin, 
 V. N. Staroverov, T. A. Keith, R. Kobayashi, J. Normand, 
 K. Raghavachari, A. P. Rendell, J. C. Burant, S. S. Iyengar, 
 J. Tomasi, M. Cossi, J. M. Millam, M. Klene, C. Adamo, R. Cammi, 
 J. W. Ochterski, R. L. Martin, K. Morokuma, O. Farkas, 
 J. B. Foresman, and D. J. Fox, Gaussian, Inc., Wallingford CT, 2016.
 
 ******************************************
 Gaussian 16:  ES64L-G16RevA.03 25-Dec-2016
                17-May-2018 
 ******************************************
 --------------------------------------------------
 #P HF/def2SVP iop(3/33=1,2/12=3) guess=only nosymm
 --------------------------------------------------
 1/38=1,172=1/1;
 2/12=3,15=1,17=6,18=5,40=1/2;
 3/5=43,7=101,11=9,25=1,30=1,33=1,89=1/1,2;
 4//1;
 6/7=3,28=1/1;
 99/5=2/99;
 Leave Link    1 at Thu May 17 17:07:55 2018, MaxMem=           0 cpu:               0.0 elap:               0.0
 (Enter /usr/remote/gaussian/g16/l101.exe)
 -----
 title
 -----
 Symbolic Z-matrix:
 Charge =  0 Multiplicity = 1
 C                    0.         1.03171   0. 
 H                     0.93884   1.63101   0. 
 H                    -0.93882   1.63104   0. 
 S                    0.        -0.59077   0. 
 C                    0.         1.03171   0. 
 H                     0.93884   1.63101   0. 
 H                    -0.93882   1.63104   0. 
 S                    0.        -0.59077   0. 
 
 ITRead=  0  0  0  0  0  0  0  0
 MicOpt= -1 -1 -1 -1 -1 -1 -1 -1
 NAtoms=      8 NQM=        8 NQMF=       0 NMMI=      0 NMMIF=      0
                NMic=       0 NMicF=      0.
                    Isotopes and Nuclear Properties:
 (Nuclear quadrupole moments (NQMom) in fm**2, nuclear magnetic moments (NMagM)
  in nuclear magnetons)

  Atom         1           2           3           4           5           6           7           8
 IAtWgt=          12           1           1          32          12           1           1          32
 AtmWgt=  12.0000000   1.0078250   1.0078250  31.9720718  12.0000000   1.0078250   1.0078250  31.9720718
 NucSpn=           0           1           1           0           0           1           1           0
 AtZEff=  -0.0000000  -0.0000000  -0.0000000  -0.0000000  -0.0000000  -0.0000000  -0.0000000  -0.0000000
 NQMom=    0.0000000   0.0000000   0.0000000   0.0000000   0.0000000   0.0000000   0.0000000   0.0000000
 NMagM=    0.0000000   2.7928460   2.7928460   0.0000000   0.0000000   2.7928460   2.7928460   0.0000000
 AtZNuc=   6.0000000   1.0000000   1.0000000  16.0000000   6.0000000   1.0000000   1.0000000  16.0000000
 Leave Link  101 at Thu May 17 17:07:55 2018, MaxMem=   104857600 cpu:               0.1 elap:               0.1
 (Enter /usr/remote/gaussian/g16/l202.exe)
                          Input orientation:                          
 ---------------------------------------------------------------------
 Center     Atomic      Atomic             Coordinates (Angstroms)
 Number     Number       Type             X           Y           Z
 ---------------------------------------------------------------------
      1          6           0       -0.000001    1.031713    0.000000
      2          1           0        0.938837    1.631014    0.000000
      3          1           0       -0.938820    1.631044    0.000000
      4         16           0       -0.000001   -0.590771    0.000000
      5          6           0       -0.000001    1.031713    0.000000
      6          1           0        0.938837    1.631014    0.000000
      7          1           0       -0.938820    1.631044    0.000000
      8         16           0       -0.000001   -0.590771    0.000000
 ---------------------------------------------------------------------
                    Distance matrix (angstroms):
                    1          2          3          4          5
     1  C    0.000000
     2  H    1.113813   0.000000
     3  H    1.113813   1.877657   0.000000
     4  S    1.622484   2.412001   2.412020   0.000000
     5  C    0.000000   1.113813   1.113813   1.622484   0.000000
     6  H    1.113813   0.000000   1.877657   2.412001   1.113813
     7  H    1.113813   1.877657   0.000000   2.412020   1.113813
     8  S    1.622484   2.412001   2.412020   0.000000   1.622484
                    6          7          8
     6  H    0.000000
     7  H    1.877657   0.000000
     8  S    2.412001   2.412020   0.000000
 Symmetry turned off by external request.
 Stoichiometry    C2H4S2
 Framework group  CS[SG(C2H4S2)]
 Deg. of freedom    13
 Full point group                 CS      NOp   2
 Rotational constants (GHZ):         142.2327098           8.6929178           8.1922287
 Leave Link  202 at Thu May 17 17:07:55 2018, MaxMem=   104857600 cpu:               0.1 elap:               0.1
 (Enter /usr/remote/gaussian/g16/l301.exe)
 Standard basis: def2SVP (5D, 7F)
                         Coordinates in L301:                         
 ---------------------------------------------------------------------
 Center     Atomic      Atomic             Coordinates (Angstroms)
 Number     Number       Type             X           Y           Z
 ---------------------------------------------------------------------
      1          6           0       -0.000001    1.031713    0.000000
      2          1           0        0.938837    1.631014    0.000000
      3          1           0       -0.938820    1.631044    0.000000
      4         16           0       -0.000001   -0.590771    0.000000
      5          6           0       -0.000001    1.031713    0.000000
      6          1           0        0.938837    1.631014    0.000000
      7          1           0       -0.938820    1.631044    0.000000
      8         16           0       -0.000001   -0.590771    0.000000
 ---------------------------------------------------------------------
 ======================================================================================================
                                       Pseudopotential Parameters
 ======================================================================================================
  Center     Atomic      Valence      Angular      Power
  Number     Number     Electrons     Momentum     of R      Exponent        Coefficient   SO-Coeffient
 ======================================================================================================
    1          6
                                   No pseudopotential on this center.
    2          1
                                   No pseudopotential on this center.
    3          1
                                   No pseudopotential on this center.
    4         16
                                   No pseudopotential on this center.
    5          6
                                   No pseudopotential on this center.
    6          1
                                   No pseudopotential on this center.
    7          1
                                   No pseudopotential on this center.
    8         16
                                   No pseudopotential on this center.
 ======================================================================================================
 FixB: optimizing general contractions.
 Ernie: Thresh=  0.10000D-02 Tol=  0.10000D-05 Strict=F.
 IA=     1 ShT= 0 ShC= 0 NL=   3 NS=   2.
 IA=     1 L=0 SC=0 ISt=    0 NBk=    0 NP=    0 IndPr=    0.
 IA=     1 ShT= 1 ShC= 1 NL=   2 NS=   1.
 IA=     1 L=1 SC=1 ISt=    0 NBk=    0 NP=    0 IndPr=    0.
 IA=     1 ShT= 2 ShC= 2 NL=   1 NS=   1.
 IA=     1 L=2 SC=2 ISt=    0 NBk=    0 NP=    0 IndPr=    0.
 IA=     2 ShT= 0 ShC= 0 NL=   2 NS=   1.
 IA=     2 L=0 SC=0 ISt=    0 NBk=    0 NP=    0 IndPr=    0.
 IA=     2 ShT= 1 ShC= 1 NL=   1 NS=   1.
 IA=     2 L=1 SC=1 ISt=    0 NBk=    0 NP=    0 IndPr=    0.
 IA=     3 ShT= 0 ShC= 0 NL=   2 NS=   1.
 IA=     3 L=0 SC=0 ISt=    0 NBk=    0 NP=    0 IndPr=    0.
 IA=     3 ShT= 1 ShC= 1 NL=   1 NS=   1.
 IA=     3 L=1 SC=1 ISt=    0 NBk=    0 NP=    0 IndPr=    0.
 IA=     4 ShT= 0 ShC= 0 NL=   4 NS=   2.
 IA=     4 L=0 SC=0 ISt=    1 NBk=    2 NP=    8 IndPr=    0.
 DoElim1:  L=0 select primitive    1 from    2 using    1 C=-2.23D-03
 DoElim2:  L=0 select primitive    7 from    1 using    2 C= 6.51D-01
 Delete L=0 primitive    6 from    2 C=  0.00D+00.
 Delete L=0 primitive    4 from    2 C=  0.00D+00.
 Delete L=0 primitive    3 from    2 C=  0.00D+00.
 Delete L=0 primitive    2 from    2 C=  0.00D+00.
 Delete L=0 primitive    1 from    2 C=  0.00D+00.
 Delete L=0 primitive    8 from    1 C=  0.00D+00.
 Delete L=0 primitive    7 from    1 C=  0.00D+00.
 Delete L=0 primitive    5 from    1 C=  0.00D+00.
 IA=     4 L=0 SC=0 ISt=    0 NBk=    0 NP=    0 IndPr=    8.
 IA=     4 ShT= 1 ShC= 1 NL=   3 NS=   2.
 IA=     4 L=1 SC=1 ISt=    0 NBk=    0 NP=    0 IndPr=    0.
 IA=     4 ShT= 2 ShC= 2 NL=   1 NS=   1.
 IA=     4 L=2 SC=2 ISt=    0 NBk=    0 NP=    0 IndPr=    0.
 IA=     5 ShT= 0 ShC= 0 NL=   3 NS=   2.
 IA=     5 L=0 SC=0 ISt=    0 NBk=    0 NP=    0 IndPr=    0.
 IA=     5 ShT= 1 ShC= 1 NL=   2 NS=   1.
 IA=     5 L=1 SC=1 ISt=    0 NBk=    0 NP=    0 IndPr=    0.
 IA=     5 ShT= 2 ShC= 2 NL=   1 NS=   1.
 IA=     5 L=2 SC=2 ISt=    0 NBk=    0 NP=    0 IndPr=    0.
 IA=     6 ShT= 0 ShC= 0 NL=   2 NS=   1.
 IA=     6 L=0 SC=0 ISt=    0 NBk=    0 NP=    0 IndPr=    0.
 IA=     6 ShT= 1 ShC= 1 NL=   1 NS=   1.
 IA=     6 L=1 SC=1 ISt=    0 NBk=    0 NP=    0 IndPr=    0.
 IA=     7 ShT= 0 ShC= 0 NL=   2 NS=   1.
 IA=     7 L=0 SC=0 ISt=    0 NBk=    0 NP=    0 IndPr=    0.
 IA=     7 ShT= 1 ShC= 1 NL=   1 NS=   1.
 IA=     7 L=1 SC=1 ISt=    0 NBk=    0 NP=    0 IndPr=    0.
 IA=     8 ShT= 0 ShC= 0 NL=   4 NS=   2.
 IA=     8 L=0 SC=0 ISt=    1 NBk=    2 NP=    8 IndPr=    0.
 DoElim1:  L=0 select primitive    1 from    2 using    1 C=-2.23D-03
 DoElim2:  L=0 select primitive    7 from    1 using    2 C= 6.51D-01
 Delete L=0 primitive    6 from    2 C=  0.00D+00.
 Delete L=0 primitive    4 from    2 C=  0.00D+00.
 Delete L=0 primitive    3 from    2 C=  0.00D+00.
 Delete L=0 primitive    2 from    2 C=  0.00D+00.
 Delete L=0 primitive    1 from    2 C=  0.00D+00.
 Delete L=0 primitive    8 from    1 C=  0.00D+00.
 Delete L=0 primitive    7 from    1 C=  0.00D+00.
 Delete L=0 primitive    5 from    1 C=  0.00D+00.
 IA=     8 L=0 SC=0 ISt=    0 NBk=    0 NP=    0 IndPr=    8.
 IA=     8 ShT= 1 ShC= 1 NL=   3 NS=   2.
 IA=     8 L=1 SC=1 ISt=    0 NBk=    0 NP=    0 IndPr=    0.
 IA=     8 ShT= 2 ShC= 2 NL=   1 NS=   1.
 IA=     8 L=2 SC=2 ISt=    0 NBk=    0 NP=    0 IndPr=    0.
 LdAtmC:  AtmChg=     6.000000     1.000000     1.000000    16.000000     6.000000
 LdAtmC:  AtmChg=     1.000000     1.000000    16.000000
 RepNN0:  I=     5 J=     1 R= 0.00D+00
 RepNN0:  I=     6 J=     2 R= 0.00D+00
 RepNN0:  I=     7 J=     3 R= 0.00D+00
 RepNN0:  I=     8 J=     4 R= 0.00D+00
 AtZEff=     -3.6000000     -1.0000000     -1.0000000    -13.6000000     -3.6000000
 AtZEff=     -1.0000000     -1.0000000    -13.6000000
    84 basis functions,   152 primitive gaussians,    88 cartesian basis functions
    24 alpha electrons       24 beta electrons
       nuclear repulsion energy                  Inf Hartrees.
 IS=     1 IAt=     1 ISR=     1 T=0 IP=      1 IndIP=      1 IndIPD=      0 C=  8.208957D-01  0.000000D+00                             NZ=T
 IS=     1 IAt=     1 ISR=     1 T=0 IP=      2 IndIP=      2 IndIPD=      1 C=  1.476645D+00  0.000000D+00                             NZ=T
 IS=     1 IAt=     1 ISR=     1 T=0 IP=      3 IndIP=      3 IndIPD=      2 C=  2.152612D+00  0.000000D+00                             NZ=T
 IS=     1 IAt=     1 ISR=     1 T=0 IP=      4 IndIP=      4 IndIPD=      3 C=  2.108172D+00  0.000000D+00                             NZ=T
 IS=     1 IAt=     1 ISR=     1 T=0 IP=      5 IndIP=      5 IndIPD=      4 C=  8.291000D-01  0.000000D+00                             NZ=T
 IS=     2 IAt=     1 ISR=     2 T=0 IP=      1 IndIP=      6 IndIPD=      0 C=  3.601183D-01  0.000000D+00                             NZ=T
 IS=     3 IAt=     1 ISR=     3 T=0 IP=      1 IndIP=      7 IndIPD=      0 C=  1.551027D-01  0.000000D+00                             NZ=T
 IS=     4 IAt=     1 ISR=     4 T=1 IP=      1 IndIP=      8 IndIPD=      0 C=  0.000000D+00  1.346765D+00                             NZ=T
 IS=     4 IAt=     1 ISR=     4 T=1 IP=      2 IndIP=      9 IndIPD=      1 C=  0.000000D+00  1.067807D+00                             NZ=T
 IS=     4 IAt=     1 ISR=     4 T=1 IP=      3 IndIP=     10 IndIPD=      2 C=  0.000000D+00  5.108736D-01                             NZ=T
 IS=     5 IAt=     1 ISR=     5 T=1 IP=      1 IndIP=     11 IndIPD=      0 C=  0.000000D+00  1.360472D-01                             NZ=T
 IS=     6 IAt=     1 ISR=     6 T=2 IP=      1 IndIP=     12 IndIPD=      1 C=  0.000000D+00  0.000000D+00  1.113825D+00  0.000000D+00 NZ=T
 IS=     7 IAt=     2 ISR=     1 T=0 IP=      1 IndIP=     13 IndIPD=      0 C=  1.634904D-01  0.000000D+00                             NZ=T
 IS=     7 IAt=     2 ISR=     1 T=0 IP=      2 IndIP=     14 IndIPD=      1 C=  2.773516D-01  0.000000D+00                             NZ=T
 IS=     7 IAt=     2 ISR=     1 T=0 IP=      3 IndIP=     15 IndIPD=      2 C=  3.157501D-01  0.000000D+00                             NZ=T
 IS=     8 IAt=     2 ISR=     2 T=0 IP=      1 IndIP=     16 IndIPD=      0 C=  1.470772D-01  0.000000D+00                             NZ=T
 IS=     9 IAt=     2 ISR=     3 T=1 IP=      1 IndIP=     17 IndIPD=      0 C=  0.000000D+00  1.078456D+00                             NZ=T
 IS=    10 IAt=     3 ISR=     1 T=0 IP=      1 IndIP=     18 IndIPD=      0 C=  1.634904D-01  0.000000D+00                             NZ=T
 IS=    10 IAt=     3 ISR=     1 T=0 IP=      2 IndIP=     19 IndIPD=      1 C=  2.773516D-01  0.000000D+00                             NZ=T
 IS=    10 IAt=     3 ISR=     1 T=0 IP=      3 IndIP=     20 IndIPD=      2 C=  3.157501D-01  0.000000D+00                             NZ=T
 IS=    11 IAt=     3 ISR=     2 T=0 IP=      1 IndIP=     21 IndIPD=      0 C=  1.470772D-01  0.000000D+00                             NZ=T
 IS=    12 IAt=     3 ISR=     3 T=1 IP=      1 IndIP=     22 IndIPD=      0 C=  0.000000D+00  1.078456D+00                             NZ=T
 IS=    13 IAt=     4 ISR=     1 T=0 IP=      1 IndIP=     23 IndIPD=      0 C= -3.659639D+00  0.000000D+00                             NZ=T
 IS=    13 IAt=     4 ISR=     1 T=0 IP=      2 IndIP=     24 IndIPD=      1 C= -6.614185D+00  0.000000D+00                             NZ=T
 IS=    13 IAt=     4 ISR=     1 T=0 IP=      3 IndIP=     25 IndIPD=      2 C= -9.819241D+00  0.000000D+00                             NZ=T
 IS=    13 IAt=     4 ISR=     1 T=0 IP=      4 IndIP=     26 IndIPD=      3 C= -9.744953D+00  0.000000D+00                             NZ=T
 IS=    13 IAt=     4 ISR=     1 T=0 IP=      5 IndIP=     27 IndIPD=      4 C= -3.675826D+00  0.000000D+00                             NZ=T
 IS=    14 IAt=     4 ISR=     2 T=0 IP=      1 IndIP=     28 IndIPD=      0 C= -1.150314D+00  0.000000D+00                             NZ=T
 IS=    14 IAt=     4 ISR=     2 T=0 IP=      2 IndIP=     29 IndIPD=      1 C=  1.320658D+00  0.000000D+00                             NZ=T
 IS=    14 IAt=     4 ISR=     2 T=0 IP=      3 IndIP=     30 IndIPD=      2 C=  6.153505D-01  0.000000D+00                             NZ=T
 IS=    15 IAt=     4 ISR=     3 T=0 IP=      1 IndIP=     31 IndIPD=      0 C=  3.288940D-01  0.000000D+00                             NZ=T
 IS=    16 IAt=     4 ISR=     4 T=0 IP=      1 IndIP=     32 IndIPD=      0 C=  1.587942D-01  0.000000D+00                             NZ=T
 IS=    17 IAt=     4 ISR=     5 T=1 IP=      1 IndIP=     33 IndIPD=      0 C=  0.000000D+00 -1.379645D+01                             NZ=T
 IS=    17 IAt=     4 ISR=     5 T=1 IP=      2 IndIP=     34 IndIPD=      1 C=  0.000000D+00 -1.611487D+01                             NZ=T
 IS=    17 IAt=     4 ISR=     5 T=1 IP=      3 IndIP=     35 IndIPD=      2 C=  0.000000D+00 -1.399772D+01                             NZ=T
 IS=    17 IAt=     4 ISR=     5 T=1 IP=      4 IndIP=     36 IndIPD=      3 C=  0.000000D+00 -7.351064D+00                             NZ=T
 IS=    17 IAt=     4 ISR=     5 T=1 IP=      5 IndIP=     37 IndIPD=      4 C=  0.000000D+00 -1.655268D+00                             NZ=T
 IS=    18 IAt=     4 ISR=     6 T=1 IP=      1 IndIP=     38 IndIPD=      0 C=  0.000000D+00  7.806678D-01                             NZ=T
 IS=    19 IAt=     4 ISR=     7 T=1 IP=      1 IndIP=     39 IndIPD=      0 C=  0.000000D+00  1.555212D-01                             NZ=T
 IS=    20 IAt=     4 ISR=     8 T=2 IP=      1 IndIP=     40 IndIPD=      2 C=  0.000000D+00  0.000000D+00  5.781548D-01  0.000000D+00 NZ=T
 IS=    21 IAt=     5 ISR=     1 T=0 IP=      1 IndIP=     41 IndIPD=      0 C=  8.208957D-01  0.000000D+00                             NZ=T
 IS=    21 IAt=     5 ISR=     1 T=0 IP=      2 IndIP=     42 IndIPD=      1 C=  1.476645D+00  0.000000D+00                             NZ=T
 IS=    21 IAt=     5 ISR=     1 T=0 IP=      3 IndIP=     43 IndIPD=      2 C=  2.152612D+00  0.000000D+00                             NZ=T
 IS=    21 IAt=     5 ISR=     1 T=0 IP=      4 IndIP=     44 IndIPD=      3 C=  2.108172D+00  0.000000D+00                             NZ=T
 IS=    21 IAt=     5 ISR=     1 T=0 IP=      5 IndIP=     45 IndIPD=      4 C=  8.291000D-01  0.000000D+00                             NZ=T
 IS=    22 IAt=     5 ISR=     2 T=0 IP=      1 IndIP=     46 IndIPD=      0 C=  3.601183D-01  0.000000D+00                             NZ=T
 IS=    23 IAt=     5 ISR=     3 T=0 IP=      1 IndIP=     47 IndIPD=      0 C=  1.551027D-01  0.000000D+00                             NZ=T
 IS=    24 IAt=     5 ISR=     4 T=1 IP=      1 IndIP=     48 IndIPD=      0 C=  0.000000D+00  1.346765D+00                             NZ=T
 IS=    24 IAt=     5 ISR=     4 T=1 IP=      2 IndIP=     49 IndIPD=      1 C=  0.000000D+00  1.067807D+00                             NZ=T
 IS=    24 IAt=     5 ISR=     4 T=1 IP=      3 IndIP=     50 IndIPD=      2 C=  0.000000D+00  5.108736D-01                             NZ=T
 IS=    25 IAt=     5 ISR=     5 T=1 IP=      1 IndIP=     51 IndIPD=      0 C=  0.000000D+00  1.360472D-01                             NZ=T
 IS=    26 IAt=     5 ISR=     6 T=2 IP=      1 IndIP=     52 IndIPD=      3 C=  0.000000D+00  0.000000D+00  1.113825D+00  0.000000D+00 NZ=T
 IS=    27 IAt=     6 ISR=     1 T=0 IP=      1 IndIP=     53 IndIPD=      0 C=  1.634904D-01  0.000000D+00                             NZ=T
 IS=    27 IAt=     6 ISR=     1 T=0 IP=      2 IndIP=     54 IndIPD=      1 C=  2.773516D-01  0.000000D+00                             NZ=T
 IS=    27 IAt=     6 ISR=     1 T=0 IP=      3 IndIP=     55 IndIPD=      2 C=  3.157501D-01  0.000000D+00                             NZ=T
 IS=    28 IAt=     6 ISR=     2 T=0 IP=      1 IndIP=     56 IndIPD=      0 C=  1.470772D-01  0.000000D+00                             NZ=T
 IS=    29 IAt=     6 ISR=     3 T=1 IP=      1 IndIP=     57 IndIPD=      0 C=  0.000000D+00  1.078456D+00                             NZ=T
 IS=    30 IAt=     7 ISR=     1 T=0 IP=      1 IndIP=     58 IndIPD=      0 C=  1.634904D-01  0.000000D+00                             NZ=T
 IS=    30 IAt=     7 ISR=     1 T=0 IP=      2 IndIP=     59 IndIPD=      1 C=  2.773516D-01  0.000000D+00                             NZ=T
 IS=    30 IAt=     7 ISR=     1 T=0 IP=      3 IndIP=     60 IndIPD=      2 C=  3.157501D-01  0.000000D+00                             NZ=T
 IS=    31 IAt=     7 ISR=     2 T=0 IP=      1 IndIP=     61 IndIPD=      0 C=  1.470772D-01  0.000000D+00                             NZ=T
 IS=    32 IAt=     7 ISR=     3 T=1 IP=      1 IndIP=     62 IndIPD=      0 C=  0.000000D+00  1.078456D+00                             NZ=T
 IS=    33 IAt=     8 ISR=     1 T=0 IP=      1 IndIP=     63 IndIPD=      0 C= -3.659639D+00  0.000000D+00                             NZ=T
 IS=    33 IAt=     8 ISR=     1 T=0 IP=      2 IndIP=     64 IndIPD=      1 C= -6.614185D+00  0.000000D+00                             NZ=T
 IS=    33 IAt=     8 ISR=     1 T=0 IP=      3 IndIP=     65 IndIPD=      2 C= -9.819241D+00  0.000000D+00                             NZ=T
 IS=    33 IAt=     8 ISR=     1 T=0 IP=      4 IndIP=     66 IndIPD=      3 C= -9.744953D+00  0.000000D+00                             NZ=T
 IS=    33 IAt=     8 ISR=     1 T=0 IP=      5 IndIP=     67 IndIPD=      4 C= -3.675826D+00  0.000000D+00                             NZ=T
 IS=    34 IAt=     8 ISR=     2 T=0 IP=      1 IndIP=     68 IndIPD=      0 C= -1.150314D+00  0.000000D+00                             NZ=T
 IS=    34 IAt=     8 ISR=     2 T=0 IP=      2 IndIP=     69 IndIPD=      1 C=  1.320658D+00  0.000000D+00                             NZ=T
 IS=    34 IAt=     8 ISR=     2 T=0 IP=      3 IndIP=     70 IndIPD=      2 C=  6.153505D-01  0.000000D+00                             NZ=T
 IS=    35 IAt=     8 ISR=     3 T=0 IP=      1 IndIP=     71 IndIPD=      0 C=  3.288940D-01  0.000000D+00                             NZ=T
 IS=    36 IAt=     8 ISR=     4 T=0 IP=      1 IndIP=     72 IndIPD=      0 C=  1.587942D-01  0.000000D+00                             NZ=T
 IS=    37 IAt=     8 ISR=     5 T=1 IP=      1 IndIP=     73 IndIPD=      0 C=  0.000000D+00 -1.379645D+01                             NZ=T
 IS=    37 IAt=     8 ISR=     5 T=1 IP=      2 IndIP=     74 IndIPD=      1 C=  0.000000D+00 -1.611487D+01                             NZ=T
 IS=    37 IAt=     8 ISR=     5 T=1 IP=      3 IndIP=     75 IndIPD=      2 C=  0.000000D+00 -1.399772D+01                             NZ=T
 IS=    37 IAt=     8 ISR=     5 T=1 IP=      4 IndIP=     76 IndIPD=      3 C=  0.000000D+00 -7.351064D+00                             NZ=T
 IS=    37 IAt=     8 ISR=     5 T=1 IP=      5 IndIP=     77 IndIPD=      4 C=  0.000000D+00 -1.655268D+00                             NZ=T
 IS=    38 IAt=     8 ISR=     6 T=1 IP=      1 IndIP=     78 IndIPD=      0 C=  0.000000D+00  7.806678D-01                             NZ=T
 IS=    39 IAt=     8 ISR=     7 T=1 IP=      1 IndIP=     79 IndIPD=      0 C=  0.000000D+00  1.555212D-01                             NZ=T
 IS=    40 IAt=     8 ISR=     8 T=2 IP=      1 IndIP=     80 IndIPD=      4 C=  0.000000D+00  0.000000D+00  5.781548D-01  0.000000D+00 NZ=T
 IExCor=    0 DFT=F Ex=HF Corr=None ExCW=0 ScaHFX=  1.000000
 ScaDFX=  1.000000  1.000000  1.000000  1.000000 ScalE2=  1.000000  1.000000
 IRadAn=      5 IRanWt=     -1 IRanGd=            0 ICorTp=0 IEmpDi=  4
 NAtoms=    8 NActive=    8 NUniq=    8 SFac= 1.00D+00 NAtFMM=   60 NAOKFM=F Big=F
 Integral buffers will be    131072 words long.
 Raffenetti 1 integral format.
 Two-electron integral symmetry is turned off.
 Leave Link  301 at Thu May 17 17:07:55 2018, MaxMem=   104857600 cpu:               0.0 elap:               0.0
 (Enter /usr/remote/gaussian/g16/l302.exe)
 NPDir=0 NMtPBC=     1 NCelOv=     1 NCel=       1 NClECP=     1 NCelD=      1
         NCelK=      1 NCelE2=     1 NClLst=     1 CellRange=     0.0.
 One-electron integrals computed using PRISM.
 Entering OneElI...
 Calculate overlap and kinetic energy integrals
    NBasis =  84  MinDer = 0  MaxDer = 0
 Requested accuracy = 0.1000D-12
 PrmmSu-InSpLW:  IPartL=    0 NPrtUS=    1 NPrtUL=    1 DoSpLW=F IThBeg=    0 IThEnd=    0 NThAct=    1.
 PrsmSu:  NPrtUS=   1 ThrOK=F IAlg=1 NPAlg=1 LenDen=           0 ISkipM=0 DoSpLW=F IThBeg=    0 IThEnd=    0.
 Prism:   IPart=     0 DynPar=F LinDyn=F Incr=           8.
 PRISM was handed   104785206 working-precision words and   820 shell-pairs
 IPart=  0 NShTot=         820 NBatch=          32 AvBLen=        25.6
 PrSmSu:  NxtVal=              9.
 *** Overlap *** 
                1             2             3             4             5 
      1  0.100000D+01
      2  0.325565D+00  0.100000D+01
      3  0.151774D+00  0.798485D+00  0.100000D+01
      4  0.000000D+00  0.000000D+00  0.000000D+00  0.100000D+01
      5  0.000000D+00  0.000000D+00  0.000000D+00  0.000000D+00  0.100000D+01
      6  0.000000D+00  0.000000D+00  0.000000D+00  0.000000D+00  0.000000D+00
      7  0.000000D+00  0.000000D+00  0.000000D+00  0.531899D+00  0.000000D+00
      8  0.000000D+00  0.000000D+00  0.000000D+00  0.000000D+00  0.531899D+00
      9  0.000000D+00  0.000000D+00  0.000000D+00  0.000000D+00  0.000000D+00
     10  0.000000D+00  0.000000D+00  0.000000D+00  0.000000D+00  0.000000D+00
     11  0.000000D+00  0.000000D+00  0.000000D+00  0.000000D+00  0.000000D+00
     12  0.000000D+00  0.000000D+00  0.000000D+00  0.000000D+00  0.000000D+00
     13  0.000000D+00  0.000000D+00  0.000000D+00  0.000000D+00  0.000000D+00
     14  0.000000D+00  0.000000D+00  0.000000D+00  0.000000D+00  0.000000D+00
     15  0.467919D-01  0.354656D+00  0.446735D+00  0.320842D+00  0.204807D+00
     16  0.852098D-01  0.513041D+00  0.755304D+00  0.176183D+00  0.112465D+00
     17 -0.631701D-01 -0.297404D+00 -0.157174D+00 -0.231945D+00 -0.270587D+00
     18 -0.403242D-01 -0.189846D+00 -0.100331D+00 -0.270587D+00  0.192164D-01
     19  0.000000D+00  0.000000D+00  0.000000D+00  0.000000D+00  0.000000D+00
     20  0.467919D-01  0.354656D+00  0.446735D+00 -0.320835D+00  0.204818D+00
     21  0.852098D-01  0.513041D+00  0.755304D+00 -0.176179D+00  0.112471D+00
     22  0.631688D-01  0.297398D+00  0.157171D+00 -0.231928D+00  0.270595D+00
     23 -0.403262D-01 -0.189855D+00 -0.100336D+00  0.270595D+00  0.191995D-01
     24  0.000000D+00  0.000000D+00  0.000000D+00  0.000000D+00  0.000000D+00
     25  0.000000D+00 -0.186330D-02 -0.100405D-01  0.000000D+00  0.209836D-02
     26  0.117820D-05  0.203176D-01  0.823127D-01  0.000000D+00 -0.256243D-01
     27  0.132883D-01  0.168612D+00  0.339229D+00  0.000000D+00 -0.187432D+00
     28  0.451358D-01  0.312268D+00  0.535201D+00  0.000000D+00 -0.193509D+00
     29  0.000000D+00  0.000000D+00  0.000000D+00 -0.312803D-02  0.000000D+00
     30 -0.130569D-05 -0.166699D-01 -0.248889D-01  0.000000D+00  0.240077D-01
     31  0.000000D+00  0.000000D+00  0.000000D+00  0.000000D+00  0.000000D+00
     32  0.000000D+00  0.000000D+00  0.000000D+00  0.519051D-01  0.000000D+00
     33  0.105327D-01  0.185903D+00  0.202132D+00  0.000000D+00 -0.239979D+00
     34  0.000000D+00  0.000000D+00  0.000000D+00  0.000000D+00  0.000000D+00
     35  0.000000D+00  0.000000D+00  0.000000D+00  0.165327D+00  0.000000D+00
     36  0.951862D-01  0.504923D+00  0.541942D+00  0.000000D+00 -0.245769D+00
     37  0.000000D+00  0.000000D+00  0.000000D+00  0.000000D+00  0.000000D+00
     38 -0.182513D-01 -0.117765D+00 -0.571384D-01  0.000000D+00  0.140719D+00
     39  0.000000D+00  0.000000D+00  0.000000D+00  0.000000D+00  0.000000D+00
     40  0.000000D+00  0.000000D+00  0.000000D+00  0.000000D+00  0.000000D+00
     41 -0.316121D-01 -0.203975D+00 -0.989665D-01  0.000000D+00  0.243732D+00
     42  0.000000D+00  0.000000D+00  0.000000D+00  0.142860D+00  0.000000D+00
     43  0.100000D+01  0.325565D+00  0.151774D+00  0.000000D+00  0.000000D+00
     44  0.325565D+00  0.100000D+01  0.798485D+00  0.000000D+00  0.000000D+00
     45  0.151774D+00  0.798485D+00  0.100000D+01  0.000000D+00  0.000000D+00
     46  0.000000D+00  0.000000D+00  0.000000D+00  0.100000D+01  0.000000D+00
     47  0.000000D+00  0.000000D+00  0.000000D+00  0.000000D+00  0.100000D+01
     48  0.000000D+00  0.000000D+00  0.000000D+00  0.000000D+00  0.000000D+00
     49  0.000000D+00  0.000000D+00  0.000000D+00  0.531899D+00  0.000000D+00
     50  0.000000D+00  0.000000D+00  0.000000D+00  0.000000D+00  0.531899D+00
     51  0.000000D+00  0.000000D+00  0.000000D+00  0.000000D+00  0.000000D+00
     52  0.000000D+00  0.000000D+00  0.000000D+00  0.000000D+00  0.000000D+00
     53  0.000000D+00  0.000000D+00  0.000000D+00  0.000000D+00  0.000000D+00
     54  0.000000D+00  0.000000D+00  0.000000D+00  0.000000D+00  0.000000D+00
     55  0.000000D+00  0.000000D+00  0.000000D+00  0.000000D+00  0.000000D+00
     56  0.000000D+00  0.000000D+00  0.000000D+00  0.000000D+00  0.000000D+00
     57  0.467919D-01  0.354656D+00  0.446735D+00  0.320842D+00  0.204807D+00
     58  0.852098D-01  0.513041D+00  0.755304D+00  0.176183D+00  0.112465D+00
     59 -0.631701D-01 -0.297404D+00 -0.157174D+00 -0.231945D+00 -0.270587D+00
     60 -0.403242D-01 -0.189846D+00 -0.100331D+00 -0.270587D+00  0.192164D-01
     61  0.000000D+00  0.000000D+00  0.000000D+00  0.000000D+00  0.000000D+00
     62  0.467919D-01  0.354656D+00  0.446735D+00 -0.320835D+00  0.204818D+00
     63  0.852098D-01  0.513041D+00  0.755304D+00 -0.176179D+00  0.112471D+00
     64  0.631688D-01  0.297398D+00  0.157171D+00 -0.231928D+00  0.270595D+00
     65 -0.403262D-01 -0.189855D+00 -0.100336D+00  0.270595D+00  0.191995D-01
     66  0.000000D+00  0.000000D+00  0.000000D+00  0.000000D+00  0.000000D+00
     67  0.000000D+00 -0.186330D-02 -0.100405D-01  0.000000D+00  0.209836D-02
     68  0.117820D-05  0.203176D-01  0.823127D-01  0.000000D+00 -0.256243D-01
     69  0.132883D-01  0.168612D+00  0.339229D+00  0.000000D+00 -0.187432D+00
     70  0.451358D-01  0.312268D+00  0.535201D+00  0.000000D+00 -0.193509D+00
     71  0.000000D+00  0.000000D+00  0.000000D+00 -0.312803D-02  0.000000D+00
     72 -0.130569D-05 -0.166699D-01 -0.248889D-01  0.000000D+00  0.240077D-01
     73  0.000000D+00  0.000000D+00  0.000000D+00  0.000000D+00  0.000000D+00
     74  0.000000D+00  0.000000D+00  0.000000D+00  0.519051D-01  0.000000D+00
     75  0.105327D-01  0.185903D+00  0.202132D+00  0.000000D+00 -0.239979D+00
     76  0.000000D+00  0.000000D+00  0.000000D+00  0.000000D+00  0.000000D+00
     77  0.000000D+00  0.000000D+00  0.000000D+00  0.165327D+00  0.000000D+00
     78  0.951862D-01  0.504923D+00  0.541942D+00  0.000000D+00 -0.245769D+00
     79  0.000000D+00  0.000000D+00  0.000000D+00  0.000000D+00  0.000000D+00
     80 -0.182513D-01 -0.117765D+00 -0.571384D-01  0.000000D+00  0.140719D+00
     81  0.000000D+00  0.000000D+00  0.000000D+00  0.000000D+00  0.000000D+00
     82  0.000000D+00  0.000000D+00  0.000000D+00  0.000000D+00  0.000000D+00
     83 -0.316121D-01 -0.203975D+00 -0.989665D-01  0.000000D+00  0.243732D+00
     84  0.000000D+00  0.000000D+00  0.000000D+00  0.142860D+00  0.000000D+00
                6             7             8             9            10 
      6  0.100000D+01
      7  0.000000D+00  0.100000D+01
      8  0.000000D+00  0.000000D+00  0.100000D+01
      9  0.531899D+00  0.000000D+00  0.000000D+00  0.100000D+01
     10  0.000000D+00  0.000000D+00  0.000000D+00  0.000000D+00  0.100000D+01
     11  0.000000D+00  0.000000D+00  0.000000D+00  0.000000D+00  0.000000D+00
     12  0.000000D+00  0.000000D+00  0.000000D+00  0.000000D+00  0.000000D+00
     13  0.000000D+00  0.000000D+00  0.000000D+00  0.000000D+00  0.000000D+00
     14  0.000000D+00  0.000000D+00  0.000000D+00  0.000000D+00  0.000000D+00
     15  0.000000D+00  0.476027D+00  0.303869D+00  0.000000D+00 -0.147558D+00
     16  0.000000D+00  0.451639D+00  0.288301D+00  0.000000D+00 -0.249902D-01
     17  0.000000D+00  0.503928D-01 -0.134626D+00  0.000000D+00  0.120235D+00
     18  0.000000D+00 -0.134626D+00  0.175354D+00  0.000000D+00  0.767513D-01
     19  0.191944D+00  0.000000D+00  0.000000D+00  0.261292D+00  0.000000D+00
     20  0.000000D+00 -0.476018D+00  0.303884D+00  0.000000D+00 -0.147558D+00
     21  0.000000D+00 -0.451630D+00  0.288315D+00  0.000000D+00 -0.249902D-01
     22  0.000000D+00  0.504012D-01  0.134630D+00  0.000000D+00 -0.120233D+00
     23  0.000000D+00  0.134630D+00  0.175345D+00  0.000000D+00  0.767551D-01
     24  0.191944D+00  0.000000D+00  0.000000D+00  0.261292D+00  0.000000D+00
     25  0.000000D+00  0.000000D+00  0.219247D-01  0.000000D+00  0.686258D-03
     26  0.000000D+00  0.000000D+00 -0.171676D+00  0.000000D+00 -0.120779D-01
     27  0.000000D+00  0.000000D+00 -0.538685D+00  0.000000D+00 -0.721000D-01
     28  0.000000D+00  0.000000D+00 -0.571769D+00  0.000000D+00 -0.360482D-01
     29  0.000000D+00 -0.221756D-01  0.000000D+00  0.000000D+00  0.000000D+00
     30  0.000000D+00  0.000000D+00  0.384042D-01  0.000000D+00  0.138683D-01
     31 -0.312803D-02  0.000000D+00  0.000000D+00 -0.221756D-01  0.000000D+00
     32  0.000000D+00  0.179542D+00  0.000000D+00  0.000000D+00  0.000000D+00
     33  0.000000D+00  0.000000D+00 -0.233726D+00  0.000000D+00 -0.116136D+00
     34  0.519051D-01  0.000000D+00  0.000000D+00  0.179542D+00  0.000000D+00
     35  0.000000D+00  0.467844D+00  0.000000D+00  0.000000D+00  0.000000D+00
     36  0.000000D+00  0.000000D+00 -0.239576D+00  0.000000D+00 -0.237807D-01
     37  0.165327D+00  0.000000D+00  0.000000D+00  0.467844D+00  0.000000D+00
     38  0.000000D+00  0.000000D+00  0.141504D-01  0.000000D+00  0.916795D-01
     39  0.000000D+00  0.000000D+00  0.000000D+00  0.000000D+00  0.000000D+00
     40  0.142860D+00  0.000000D+00  0.000000D+00  0.198513D+00  0.000000D+00
     41  0.000000D+00  0.000000D+00  0.245093D-01  0.000000D+00  0.826915D-01
     42  0.000000D+00  0.198513D+00  0.000000D+00  0.000000D+00  0.000000D+00
     43  0.000000D+00  0.000000D+00  0.000000D+00  0.000000D+00  0.000000D+00
     44  0.000000D+00  0.000000D+00  0.000000D+00  0.000000D+00  0.000000D+00
     45  0.000000D+00  0.000000D+00  0.000000D+00  0.000000D+00  0.000000D+00
     46  0.000000D+00  0.531899D+00  0.000000D+00  0.000000D+00  0.000000D+00
     47  0.000000D+00  0.000000D+00  0.531899D+00  0.000000D+00  0.000000D+00
     48  0.100000D+01  0.000000D+00  0.000000D+00  0.531899D+00  0.000000D+00
     49  0.000000D+00  0.100000D+01  0.000000D+00  0.000000D+00  0.000000D+00
     50  0.000000D+00  0.000000D+00  0.100000D+01  0.000000D+00  0.000000D+00
     51  0.531899D+00  0.000000D+00  0.000000D+00  0.100000D+01  0.000000D+00
     52  0.000000D+00  0.000000D+00  0.000000D+00  0.000000D+00  0.100000D+01
     53  0.000000D+00  0.000000D+00  0.000000D+00  0.000000D+00  0.000000D+00
     54  0.000000D+00  0.000000D+00  0.000000D+00  0.000000D+00  0.000000D+00
     55  0.000000D+00  0.000000D+00  0.000000D+00  0.000000D+00  0.000000D+00
     56  0.000000D+00  0.000000D+00  0.000000D+00  0.000000D+00  0.000000D+00
     57  0.000000D+00  0.476027D+00  0.303869D+00  0.000000D+00 -0.147558D+00
     58  0.000000D+00  0.451639D+00  0.288301D+00  0.000000D+00 -0.249902D-01
     59  0.000000D+00  0.503928D-01 -0.134626D+00  0.000000D+00  0.120235D+00
     60  0.000000D+00 -0.134626D+00  0.175354D+00  0.000000D+00  0.767513D-01
     61  0.191944D+00  0.000000D+00  0.000000D+00  0.261292D+00  0.000000D+00
     62  0.000000D+00 -0.476018D+00  0.303884D+00  0.000000D+00 -0.147558D+00
     63  0.000000D+00 -0.451630D+00  0.288315D+00  0.000000D+00 -0.249902D-01
     64  0.000000D+00  0.504012D-01  0.134630D+00  0.000000D+00 -0.120233D+00
     65  0.000000D+00  0.134630D+00  0.175345D+00  0.000000D+00  0.767551D-01
     66  0.191944D+00  0.000000D+00  0.000000D+00  0.261292D+00  0.000000D+00
     67  0.000000D+00  0.000000D+00  0.219247D-01  0.000000D+00  0.686258D-03
     68  0.000000D+00  0.000000D+00 -0.171676D+00  0.000000D+00 -0.120779D-01
     69  0.000000D+00  0.000000D+00 -0.538685D+00  0.000000D+00 -0.721000D-01
     70  0.000000D+00  0.000000D+00 -0.571769D+00  0.000000D+00 -0.360482D-01
     71  0.000000D+00 -0.221756D-01  0.000000D+00  0.000000D+00  0.000000D+00
     72  0.000000D+00  0.000000D+00  0.384042D-01  0.000000D+00  0.138683D-01
     73 -0.312803D-02  0.000000D+00  0.000000D+00 -0.221756D-01  0.000000D+00
     74  0.000000D+00  0.179542D+00  0.000000D+00  0.000000D+00  0.000000D+00
     75  0.000000D+00  0.000000D+00 -0.233726D+00  0.000000D+00 -0.116136D+00
     76  0.519051D-01  0.000000D+00  0.000000D+00  0.179542D+00  0.000000D+00
     77  0.000000D+00  0.467844D+00  0.000000D+00  0.000000D+00  0.000000D+00
     78  0.000000D+00  0.000000D+00 -0.239576D+00  0.000000D+00 -0.237807D-01
     79  0.165327D+00  0.000000D+00  0.000000D+00  0.467844D+00  0.000000D+00
     80  0.000000D+00  0.000000D+00  0.141504D-01  0.000000D+00  0.916795D-01
     81  0.000000D+00  0.000000D+00  0.000000D+00  0.000000D+00  0.000000D+00
     82  0.142860D+00  0.000000D+00  0.000000D+00  0.198513D+00  0.000000D+00
     83  0.000000D+00  0.000000D+00  0.245093D-01  0.000000D+00  0.826915D-01
     84  0.000000D+00  0.198513D+00  0.000000D+00  0.000000D+00  0.000000D+00
               11            12            13            14            15 
     11  0.100000D+01
     12  0.000000D+00  0.100000D+01
     13  0.000000D+00  0.000000D+00  0.100000D+01
     14  0.000000D+00  0.000000D+00  0.000000D+00  0.100000D+01
     15  0.000000D+00  0.000000D+00  0.107592D+00  0.231828D+00  0.100000D+01
     16  0.000000D+00  0.000000D+00  0.182216D-01  0.392619D-01  0.684800D+00
     17  0.000000D+00  0.000000D+00  0.685115D-01 -0.261385D+00  0.000000D+00
     18  0.000000D+00  0.000000D+00 -0.300629D+00 -0.703307D-02  0.000000D+00
     19  0.269732D+00  0.172182D+00  0.000000D+00  0.000000D+00  0.000000D+00
     20  0.000000D+00  0.000000D+00  0.107578D+00 -0.231834D+00  0.431110D-01
     21  0.000000D+00  0.000000D+00  0.182192D-01 -0.392630D-01  0.200193D+00
     22  0.000000D+00  0.000000D+00 -0.685372D-01 -0.261380D+00  0.481243D-01
     23  0.000000D+00  0.000000D+00 -0.300627D+00  0.706004D-02  0.000000D+00
     24 -0.269726D+00  0.172190D+00  0.000000D+00  0.000000D+00  0.000000D+00
     25  0.000000D+00  0.000000D+00  0.118863D-02  0.000000D+00 -0.750949D-05
     26  0.000000D+00  0.000000D+00 -0.209196D-01  0.000000D+00  0.183544D-03
     27  0.000000D+00  0.000000D+00 -0.124881D+00  0.000000D+00  0.134956D-01
     28  0.000000D+00  0.000000D+00 -0.624373D-01  0.000000D+00  0.795692D-01
     29  0.000000D+00  0.000000D+00  0.000000D+00  0.494536D-02 -0.844906D-04
     30  0.000000D+00  0.000000D+00  0.240207D-01  0.000000D+00 -0.199949D-03
     31  0.000000D+00  0.494536D-02  0.000000D+00  0.000000D+00  0.000000D+00
     32  0.000000D+00  0.000000D+00  0.000000D+00 -0.883443D-01  0.435113D-02
     33  0.000000D+00  0.000000D+00 -0.201153D+00  0.000000D+00  0.102971D-01
     34  0.000000D+00 -0.883443D-01  0.000000D+00  0.000000D+00  0.000000D+00
     35  0.000000D+00  0.000000D+00  0.000000D+00 -0.129686D+00  0.617059D-01
     36  0.000000D+00  0.000000D+00 -0.411893D-01  0.000000D+00  0.146029D+00
     37  0.000000D+00 -0.129686D+00  0.000000D+00  0.000000D+00  0.000000D+00
     38  0.000000D+00  0.000000D+00  0.826915D-01  0.000000D+00 -0.130628D-01
     39  0.439376D-01  0.000000D+00  0.000000D+00  0.000000D+00  0.000000D+00
     40  0.000000D+00 -0.225305D+00  0.000000D+00  0.000000D+00  0.000000D+00
     41  0.000000D+00  0.000000D+00  0.187164D+00  0.000000D+00 -0.157698D-01
     42  0.000000D+00  0.000000D+00  0.000000D+00 -0.225305D+00  0.162243D-01
     43  0.000000D+00  0.000000D+00  0.000000D+00  0.000000D+00  0.467919D-01
     44  0.000000D+00  0.000000D+00  0.000000D+00  0.000000D+00  0.354656D+00
     45  0.000000D+00  0.000000D+00  0.000000D+00  0.000000D+00  0.446735D+00
     46  0.000000D+00  0.000000D+00  0.000000D+00  0.000000D+00  0.320842D+00
     47  0.000000D+00  0.000000D+00  0.000000D+00  0.000000D+00  0.204807D+00
     48  0.000000D+00  0.000000D+00  0.000000D+00  0.000000D+00  0.000000D+00
     49  0.000000D+00  0.000000D+00  0.000000D+00  0.000000D+00  0.476027D+00
     50  0.000000D+00  0.000000D+00  0.000000D+00  0.000000D+00  0.303869D+00
     51  0.000000D+00  0.000000D+00  0.000000D+00  0.000000D+00  0.000000D+00
     52  0.000000D+00  0.000000D+00  0.000000D+00  0.000000D+00 -0.147558D+00
     53  0.100000D+01  0.000000D+00  0.000000D+00  0.000000D+00  0.000000D+00
     54  0.000000D+00  0.100000D+01  0.000000D+00  0.000000D+00  0.000000D+00
     55  0.000000D+00  0.000000D+00  0.100000D+01  0.000000D+00  0.107592D+00
     56  0.000000D+00  0.000000D+00  0.000000D+00  0.100000D+01  0.231828D+00
     57  0.000000D+00  0.000000D+00  0.107592D+00  0.231828D+00  0.100000D+01
     58  0.000000D+00  0.000000D+00  0.182216D-01  0.392619D-01  0.684800D+00
     59  0.000000D+00  0.000000D+00  0.685115D-01 -0.261385D+00  0.000000D+00
     60  0.000000D+00  0.000000D+00 -0.300629D+00 -0.703307D-02  0.000000D+00
     61  0.269732D+00  0.172182D+00  0.000000D+00  0.000000D+00  0.000000D+00
     62  0.000000D+00  0.000000D+00  0.107578D+00 -0.231834D+00  0.431110D-01
     63  0.000000D+00  0.000000D+00  0.182192D-01 -0.392630D-01  0.200193D+00
     64  0.000000D+00  0.000000D+00 -0.685372D-01 -0.261380D+00  0.481243D-01
     65  0.000000D+00  0.000000D+00 -0.300627D+00  0.706004D-02  0.000000D+00
     66 -0.269726D+00  0.172190D+00  0.000000D+00  0.000000D+00  0.000000D+00
     67  0.000000D+00  0.000000D+00  0.118863D-02  0.000000D+00 -0.750949D-05
     68  0.000000D+00  0.000000D+00 -0.209196D-01  0.000000D+00  0.183544D-03
     69  0.000000D+00  0.000000D+00 -0.124881D+00  0.000000D+00  0.134956D-01
     70  0.000000D+00  0.000000D+00 -0.624373D-01  0.000000D+00  0.795692D-01
     71  0.000000D+00  0.000000D+00  0.000000D+00  0.494536D-02 -0.844906D-04
     72  0.000000D+00  0.000000D+00  0.240207D-01  0.000000D+00 -0.199949D-03
     73  0.000000D+00  0.494536D-02  0.000000D+00  0.000000D+00  0.000000D+00
     74  0.000000D+00  0.000000D+00  0.000000D+00 -0.883443D-01  0.435113D-02
     75  0.000000D+00  0.000000D+00 -0.201153D+00  0.000000D+00  0.102971D-01
     76  0.000000D+00 -0.883443D-01  0.000000D+00  0.000000D+00  0.000000D+00
     77  0.000000D+00  0.000000D+00  0.000000D+00 -0.129686D+00  0.617059D-01
     78  0.000000D+00  0.000000D+00 -0.411893D-01  0.000000D+00  0.146029D+00
     79  0.000000D+00 -0.129686D+00  0.000000D+00  0.000000D+00  0.000000D+00
     80  0.000000D+00  0.000000D+00  0.826915D-01  0.000000D+00 -0.130628D-01
     81  0.439376D-01  0.000000D+00  0.000000D+00  0.000000D+00  0.000000D+00
     82  0.000000D+00 -0.225305D+00  0.000000D+00  0.000000D+00  0.000000D+00
     83  0.000000D+00  0.000000D+00  0.187164D+00  0.000000D+00 -0.157698D-01
     84  0.000000D+00  0.000000D+00  0.000000D+00 -0.225305D+00  0.162243D-01
               16            17            18            19            20 
     16  0.100000D+01
     17  0.000000D+00  0.100000D+01
     18  0.000000D+00  0.000000D+00  0.100000D+01
     19  0.000000D+00  0.000000D+00  0.000000D+00  0.100000D+01
     20  0.200193D+00 -0.481243D-01  0.000000D+00  0.000000D+00  0.100000D+01
     21  0.464088D+00 -0.123567D+00  0.193149D-05  0.000000D+00  0.684800D+00
     22  0.123567D+00 -0.589628D-01  0.102325D-05  0.000000D+00  0.000000D+00
     23 -0.193149D-05  0.102325D-05  0.649935D-02  0.000000D+00  0.000000D+00
     24  0.000000D+00  0.000000D+00  0.000000D+00  0.649935D-02  0.000000D+00
     25 -0.259855D-02  0.000000D+00  0.000000D+00  0.000000D+00 -0.750837D-05
     26  0.225403D-01 -0.734271D-05 -0.173767D-04  0.000000D+00  0.183521D-03
     27  0.123167D+00 -0.516733D-02 -0.122286D-01  0.000000D+00  0.134947D-01
     28  0.263574D+00 -0.244981D-01 -0.579754D-01  0.000000D+00  0.795664D-01
     29 -0.365207D-02  0.312412D-05  0.100223D-04  0.000000D+00  0.844779D-04
     30 -0.864272D-02  0.100223D-04  0.226071D-04  0.000000D+00 -0.199926D-03
     31  0.000000D+00  0.000000D+00  0.000000D+00 -0.111089D-05  0.000000D+00
     32  0.354270D-01 -0.837402D-03 -0.364092D-02  0.000000D+00 -0.435066D-02
     33  0.838390D-01 -0.364092D-02 -0.791522D-02  0.000000D+00  0.102963D-01
     34  0.000000D+00  0.000000D+00  0.000000D+00  0.701104D-03  0.000000D+00
     35  0.136964D+00  0.322421D-02 -0.572199D-01  0.000000D+00 -0.617021D-01
     36  0.324128D+00 -0.572199D-01 -0.108009D+00  0.000000D+00  0.146024D+00
     37  0.000000D+00  0.000000D+00  0.000000D+00  0.274031D-01  0.000000D+00
     38 -0.369739D-01  0.570153D-02  0.134928D-01  0.000000D+00 -0.130619D-01
     39  0.000000D+00  0.000000D+00  0.000000D+00  0.171112D-02  0.000000D+00
     40  0.000000D+00  0.000000D+00  0.000000D+00  0.404940D-02  0.000000D+00
     41 -0.446358D-01  0.978677D-02  0.150618D-01  0.000000D+00 -0.157691D-01
     42  0.459224D-01 -0.425902D-02 -0.179510D-01  0.000000D+00 -0.162228D-01
     43  0.852098D-01 -0.631701D-01 -0.403242D-01  0.000000D+00  0.467919D-01
     44  0.513041D+00 -0.297404D+00 -0.189846D+00  0.000000D+00  0.354656D+00
     45  0.755304D+00 -0.157174D+00 -0.100331D+00  0.000000D+00  0.446735D+00
     46  0.176183D+00 -0.231945D+00 -0.270587D+00  0.000000D+00 -0.320835D+00
     47  0.112465D+00 -0.270587D+00  0.192164D-01  0.000000D+00  0.204818D+00
     48  0.000000D+00  0.000000D+00  0.000000D+00  0.191944D+00  0.000000D+00
     49  0.451639D+00  0.503928D-01 -0.134626D+00  0.000000D+00 -0.476018D+00
     50  0.288301D+00 -0.134626D+00  0.175354D+00  0.000000D+00  0.303884D+00
     51  0.000000D+00  0.000000D+00  0.000000D+00  0.261292D+00  0.000000D+00
     52 -0.249902D-01  0.120235D+00  0.767513D-01  0.000000D+00 -0.147558D+00
     53  0.000000D+00  0.000000D+00  0.000000D+00  0.269732D+00  0.000000D+00
     54  0.000000D+00  0.000000D+00  0.000000D+00  0.172182D+00  0.000000D+00
     55  0.182216D-01  0.685115D-01 -0.300629D+00  0.000000D+00  0.107578D+00
     56  0.392619D-01 -0.261385D+00 -0.703307D-02  0.000000D+00 -0.231834D+00
     57  0.684800D+00  0.000000D+00  0.000000D+00  0.000000D+00  0.431110D-01
     58  0.100000D+01  0.000000D+00  0.000000D+00  0.000000D+00  0.200193D+00
     59  0.000000D+00  0.100000D+01  0.000000D+00  0.000000D+00 -0.481243D-01
     60  0.000000D+00  0.000000D+00  0.100000D+01  0.000000D+00  0.000000D+00
     61  0.000000D+00  0.000000D+00  0.000000D+00  0.100000D+01  0.000000D+00
     62  0.200193D+00 -0.481243D-01  0.000000D+00  0.000000D+00  0.100000D+01
     63  0.464088D+00 -0.123567D+00  0.193149D-05  0.000000D+00  0.684800D+00
     64  0.123567D+00 -0.589628D-01  0.102325D-05  0.000000D+00  0.000000D+00
     65 -0.193149D-05  0.102325D-05  0.649935D-02  0.000000D+00  0.000000D+00
     66  0.000000D+00  0.000000D+00  0.000000D+00  0.649935D-02  0.000000D+00
     67 -0.259855D-02  0.000000D+00  0.000000D+00  0.000000D+00 -0.750837D-05
     68  0.225403D-01 -0.734271D-05 -0.173767D-04  0.000000D+00  0.183521D-03
     69  0.123167D+00 -0.516733D-02 -0.122286D-01  0.000000D+00  0.134947D-01
     70  0.263574D+00 -0.244981D-01 -0.579754D-01  0.000000D+00  0.795664D-01
     71 -0.365207D-02  0.312412D-05  0.100223D-04  0.000000D+00  0.844779D-04
     72 -0.864272D-02  0.100223D-04  0.226071D-04  0.000000D+00 -0.199926D-03
     73  0.000000D+00  0.000000D+00  0.000000D+00 -0.111089D-05  0.000000D+00
     74  0.354270D-01 -0.837402D-03 -0.364092D-02  0.000000D+00 -0.435066D-02
     75  0.838390D-01 -0.364092D-02 -0.791522D-02  0.000000D+00  0.102963D-01
     76  0.000000D+00  0.000000D+00  0.000000D+00  0.701104D-03  0.000000D+00
     77  0.136964D+00  0.322421D-02 -0.572199D-01  0.000000D+00 -0.617021D-01
     78  0.324128D+00 -0.572199D-01 -0.108009D+00  0.000000D+00  0.146024D+00
     79  0.000000D+00  0.000000D+00  0.000000D+00  0.274031D-01  0.000000D+00
     80 -0.369739D-01  0.570153D-02  0.134928D-01  0.000000D+00 -0.130619D-01
     81  0.000000D+00  0.000000D+00  0.000000D+00  0.171112D-02  0.000000D+00
     82  0.000000D+00  0.000000D+00  0.000000D+00  0.404940D-02  0.000000D+00
     83 -0.446358D-01  0.978677D-02  0.150618D-01  0.000000D+00 -0.157691D-01
     84  0.459224D-01 -0.425902D-02 -0.179510D-01  0.000000D+00 -0.162228D-01
               21            22            23            24            25 
     21  0.100000D+01
     22  0.000000D+00  0.100000D+01
     23  0.000000D+00  0.000000D+00  0.100000D+01
     24  0.000000D+00  0.000000D+00  0.000000D+00  0.100000D+01
     25 -0.259845D-02  0.000000D+00  0.000000D+00  0.000000D+00  0.100000D+01
     26  0.225394D-01  0.734111D-05 -0.173735D-04  0.000000D+00 -0.280362D+00
     27  0.123163D+00  0.516679D-02 -0.122278D-01  0.000000D+00 -0.718858D-01
     28  0.263568D+00  0.244967D-01 -0.579739D-01  0.000000D+00 -0.350259D-01
     29  0.365185D-02  0.312330D-05 -0.100201D-04  0.000000D+00  0.000000D+00
     30 -0.864248D-02 -0.100201D-04  0.226030D-04  0.000000D+00  0.000000D+00
     31  0.000000D+00  0.000000D+00  0.000000D+00 -0.111066D-05  0.000000D+00
     32 -0.354251D-01 -0.837241D-03  0.364046D-02  0.000000D+00  0.000000D+00
     33  0.838372D-01  0.364046D-02 -0.791451D-02  0.000000D+00  0.000000D+00
     34  0.000000D+00  0.000000D+00  0.000000D+00  0.701021D-03  0.000000D+00
     35 -0.136958D+00  0.322502D-02  0.572168D-01  0.000000D+00  0.000000D+00
     36  0.324125D+00  0.572168D-01 -0.108008D+00  0.000000D+00  0.000000D+00
     37  0.000000D+00  0.000000D+00  0.000000D+00  0.274018D-01  0.000000D+00
     38 -0.369733D-01 -0.570090D-02  0.134918D-01  0.000000D+00  0.000000D+00
     39  0.000000D+00  0.000000D+00  0.000000D+00 -0.171089D-02  0.000000D+00
     40  0.000000D+00  0.000000D+00  0.000000D+00  0.404901D-02  0.000000D+00
     41 -0.446361D-01 -0.978582D-02  0.150612D-01  0.000000D+00  0.000000D+00
     42 -0.459205D-01 -0.425828D-02  0.179492D-01  0.000000D+00  0.000000D+00
     43  0.852098D-01  0.631688D-01 -0.403262D-01  0.000000D+00  0.000000D+00
     44  0.513041D+00  0.297398D+00 -0.189855D+00  0.000000D+00 -0.186330D-02
     45  0.755304D+00  0.157171D+00 -0.100336D+00  0.000000D+00 -0.100405D-01
     46 -0.176179D+00 -0.231928D+00  0.270595D+00  0.000000D+00  0.000000D+00
     47  0.112471D+00  0.270595D+00  0.191995D-01  0.000000D+00  0.209836D-02
     48  0.000000D+00  0.000000D+00  0.000000D+00  0.191944D+00  0.000000D+00
     49 -0.451630D+00  0.504012D-01  0.134630D+00  0.000000D+00  0.000000D+00
     50  0.288315D+00  0.134630D+00  0.175345D+00  0.000000D+00  0.219247D-01
     51  0.000000D+00  0.000000D+00  0.000000D+00  0.261292D+00  0.000000D+00
     52 -0.249902D-01 -0.120233D+00  0.767551D-01  0.000000D+00  0.686258D-03
     53  0.000000D+00  0.000000D+00  0.000000D+00 -0.269726D+00  0.000000D+00
     54  0.000000D+00  0.000000D+00  0.000000D+00  0.172190D+00  0.000000D+00
     55  0.182192D-01 -0.685372D-01 -0.300627D+00  0.000000D+00  0.118863D-02
     56 -0.392630D-01 -0.261380D+00  0.706004D-02  0.000000D+00  0.000000D+00
     57  0.200193D+00  0.481243D-01  0.000000D+00  0.000000D+00 -0.750949D-05
     58  0.464088D+00  0.123567D+00 -0.193149D-05  0.000000D+00 -0.259855D-02
     59 -0.123567D+00 -0.589628D-01  0.102325D-05  0.000000D+00  0.000000D+00
     60  0.193149D-05  0.102325D-05  0.649935D-02  0.000000D+00  0.000000D+00
     61  0.000000D+00  0.000000D+00  0.000000D+00  0.649935D-02  0.000000D+00
     62  0.684800D+00  0.000000D+00  0.000000D+00  0.000000D+00 -0.750837D-05
     63  0.100000D+01  0.000000D+00  0.000000D+00  0.000000D+00 -0.259845D-02
     64  0.000000D+00  0.100000D+01  0.000000D+00  0.000000D+00  0.000000D+00
     65  0.000000D+00  0.000000D+00  0.100000D+01  0.000000D+00  0.000000D+00
     66  0.000000D+00  0.000000D+00  0.000000D+00  0.100000D+01  0.000000D+00
     67 -0.259845D-02  0.000000D+00  0.000000D+00  0.000000D+00  0.100000D+01
     68  0.225394D-01  0.734111D-05 -0.173735D-04  0.000000D+00 -0.280362D+00
     69  0.123163D+00  0.516679D-02 -0.122278D-01  0.000000D+00 -0.718858D-01
     70  0.263568D+00  0.244967D-01 -0.579739D-01  0.000000D+00 -0.350259D-01
     71  0.365185D-02  0.312330D-05 -0.100201D-04  0.000000D+00  0.000000D+00
     72 -0.864248D-02 -0.100201D-04  0.226030D-04  0.000000D+00  0.000000D+00
     73  0.000000D+00  0.000000D+00  0.000000D+00 -0.111066D-05  0.000000D+00
     74 -0.354251D-01 -0.837241D-03  0.364046D-02  0.000000D+00  0.000000D+00
     75  0.838372D-01  0.364046D-02 -0.791451D-02  0.000000D+00  0.000000D+00
     76  0.000000D+00  0.000000D+00  0.000000D+00  0.701021D-03  0.000000D+00
     77 -0.136958D+00  0.322502D-02  0.572168D-01  0.000000D+00  0.000000D+00
     78  0.324125D+00  0.572168D-01 -0.108008D+00  0.000000D+00  0.000000D+00
     79  0.000000D+00  0.000000D+00  0.000000D+00  0.274018D-01  0.000000D+00
     80 -0.369733D-01 -0.570090D-02  0.134918D-01  0.000000D+00  0.000000D+00
     81  0.000000D+00  0.000000D+00  0.000000D+00 -0.171089D-02  0.000000D+00
     82  0.000000D+00  0.000000D+00  0.000000D+00  0.404901D-02  0.000000D+00
     83 -0.446361D-01 -0.978582D-02  0.150612D-01  0.000000D+00  0.000000D+00
     84 -0.459205D-01 -0.425828D-02  0.179492D-01  0.000000D+00  0.000000D+00
               26            27            28            29            30 
     26  0.100000D+01
     27  0.499405D+00  0.100000D+01
     28  0.271053D+00  0.843505D+00  0.100000D+01
     29  0.000000D+00  0.000000D+00  0.000000D+00  0.100000D+01
     30  0.000000D+00  0.000000D+00  0.000000D+00  0.000000D+00  0.100000D+01
     31  0.000000D+00  0.000000D+00  0.000000D+00  0.000000D+00  0.000000D+00
     32  0.000000D+00  0.000000D+00  0.000000D+00 -0.358921D+00  0.000000D+00
     33  0.000000D+00  0.000000D+00  0.000000D+00  0.000000D+00 -0.358921D+00
     34  0.000000D+00  0.000000D+00  0.000000D+00  0.000000D+00  0.000000D+00
     35  0.000000D+00  0.000000D+00  0.000000D+00 -0.980576D-01  0.000000D+00
     36  0.000000D+00  0.000000D+00  0.000000D+00  0.000000D+00 -0.980576D-01
     37  0.000000D+00  0.000000D+00  0.000000D+00  0.000000D+00  0.000000D+00
     38  0.000000D+00  0.000000D+00  0.000000D+00  0.000000D+00  0.000000D+00
     39  0.000000D+00  0.000000D+00  0.000000D+00  0.000000D+00  0.000000D+00
     40  0.000000D+00  0.000000D+00  0.000000D+00  0.000000D+00  0.000000D+00
     41  0.000000D+00  0.000000D+00  0.000000D+00  0.000000D+00  0.000000D+00
     42  0.000000D+00  0.000000D+00  0.000000D+00  0.000000D+00  0.000000D+00
     43  0.117820D-05  0.132883D-01  0.451358D-01  0.000000D+00 -0.130569D-05
     44  0.203176D-01  0.168612D+00  0.312268D+00  0.000000D+00 -0.166699D-01
     45  0.823127D-01  0.339229D+00  0.535201D+00  0.000000D+00 -0.248889D-01
     46  0.000000D+00  0.000000D+00  0.000000D+00 -0.312803D-02  0.000000D+00
     47 -0.256243D-01 -0.187432D+00 -0.193509D+00  0.000000D+00  0.240077D-01
     48  0.000000D+00  0.000000D+00  0.000000D+00  0.000000D+00  0.000000D+00
     49  0.000000D+00  0.000000D+00  0.000000D+00 -0.221756D-01  0.000000D+00
     50 -0.171676D+00 -0.538685D+00 -0.571769D+00  0.000000D+00  0.384042D-01
     51  0.000000D+00  0.000000D+00  0.000000D+00  0.000000D+00  0.000000D+00
     52 -0.120779D-01 -0.721000D-01 -0.360482D-01  0.000000D+00  0.138683D-01
     53  0.000000D+00  0.000000D+00  0.000000D+00  0.000000D+00  0.000000D+00
     54  0.000000D+00  0.000000D+00  0.000000D+00  0.000000D+00  0.000000D+00
     55 -0.209196D-01 -0.124881D+00 -0.624373D-01  0.000000D+00  0.240207D-01
     56  0.000000D+00  0.000000D+00  0.000000D+00  0.494536D-02  0.000000D+00
     57  0.183544D-03  0.134956D-01  0.795692D-01 -0.844906D-04 -0.199949D-03
     58  0.225403D-01  0.123167D+00  0.263574D+00 -0.365207D-02 -0.864272D-02
     59 -0.734271D-05 -0.516733D-02 -0.244981D-01  0.312412D-05  0.100223D-04
     60 -0.173767D-04 -0.122286D-01 -0.579754D-01  0.100223D-04  0.226071D-04
     61  0.000000D+00  0.000000D+00  0.000000D+00  0.000000D+00  0.000000D+00
     62  0.183521D-03  0.134947D-01  0.795664D-01  0.844779D-04 -0.199926D-03
     63  0.225394D-01  0.123163D+00  0.263568D+00  0.365185D-02 -0.864248D-02
     64  0.734111D-05  0.516679D-02  0.244967D-01  0.312330D-05 -0.100201D-04
     65 -0.173735D-04 -0.122278D-01 -0.579739D-01 -0.100201D-04  0.226030D-04
     66  0.000000D+00  0.000000D+00  0.000000D+00  0.000000D+00  0.000000D+00
     67 -0.280362D+00 -0.718858D-01 -0.350259D-01  0.000000D+00  0.000000D+00
     68  0.100000D+01  0.499405D+00  0.271053D+00  0.000000D+00  0.000000D+00
     69  0.499405D+00  0.100000D+01  0.843505D+00  0.000000D+00  0.000000D+00
     70  0.271053D+00  0.843505D+00  0.100000D+01  0.000000D+00  0.000000D+00
     71  0.000000D+00  0.000000D+00  0.000000D+00  0.100000D+01  0.000000D+00
     72  0.000000D+00  0.000000D+00  0.000000D+00  0.000000D+00  0.100000D+01
     73  0.000000D+00  0.000000D+00  0.000000D+00  0.000000D+00  0.000000D+00
     74  0.000000D+00  0.000000D+00  0.000000D+00 -0.358921D+00  0.000000D+00
     75  0.000000D+00  0.000000D+00  0.000000D+00  0.000000D+00 -0.358921D+00
     76  0.000000D+00  0.000000D+00  0.000000D+00  0.000000D+00  0.000000D+00
     77  0.000000D+00  0.000000D+00  0.000000D+00 -0.980576D-01  0.000000D+00
     78  0.000000D+00  0.000000D+00  0.000000D+00  0.000000D+00 -0.980576D-01
     79  0.000000D+00  0.000000D+00  0.000000D+00  0.000000D+00  0.000000D+00
     80  0.000000D+00  0.000000D+00  0.000000D+00  0.000000D+00  0.000000D+00
     81  0.000000D+00  0.000000D+00  0.000000D+00  0.000000D+00  0.000000D+00
     82  0.000000D+00  0.000000D+00  0.000000D+00  0.000000D+00  0.000000D+00
     83  0.000000D+00  0.000000D+00  0.000000D+00  0.000000D+00  0.000000D+00
     84  0.000000D+00  0.000000D+00  0.000000D+00  0.000000D+00  0.000000D+00
               31            32            33            34            35 
     31  0.100000D+01
     32  0.000000D+00  0.100000D+01
     33  0.000000D+00  0.000000D+00  0.100000D+01
     34 -0.358921D+00  0.000000D+00  0.000000D+00  0.100000D+01
     35  0.000000D+00  0.613840D+00  0.000000D+00  0.000000D+00  0.100000D+01
     36  0.000000D+00  0.000000D+00  0.613840D+00  0.000000D+00  0.000000D+00
     37 -0.980576D-01  0.000000D+00  0.000000D+00  0.613840D+00  0.000000D+00
     38  0.000000D+00  0.000000D+00  0.000000D+00  0.000000D+00  0.000000D+00
     39  0.000000D+00  0.000000D+00  0.000000D+00  0.000000D+00  0.000000D+00
     40  0.000000D+00  0.000000D+00  0.000000D+00  0.000000D+00  0.000000D+00
     41  0.000000D+00  0.000000D+00  0.000000D+00  0.000000D+00  0.000000D+00
     42  0.000000D+00  0.000000D+00  0.000000D+00  0.000000D+00  0.000000D+00
     43  0.000000D+00  0.000000D+00  0.105327D-01  0.000000D+00  0.000000D+00
     44  0.000000D+00  0.000000D+00  0.185903D+00  0.000000D+00  0.000000D+00
     45  0.000000D+00  0.000000D+00  0.202132D+00  0.000000D+00  0.000000D+00
     46  0.000000D+00  0.519051D-01  0.000000D+00  0.000000D+00  0.165327D+00
     47  0.000000D+00  0.000000D+00 -0.239979D+00  0.000000D+00  0.000000D+00
     48 -0.312803D-02  0.000000D+00  0.000000D+00  0.519051D-01  0.000000D+00
     49  0.000000D+00  0.179542D+00  0.000000D+00  0.000000D+00  0.467844D+00
     50  0.000000D+00  0.000000D+00 -0.233726D+00  0.000000D+00  0.000000D+00
     51 -0.221756D-01  0.000000D+00  0.000000D+00  0.179542D+00  0.000000D+00
     52  0.000000D+00  0.000000D+00 -0.116136D+00  0.000000D+00  0.000000D+00
     53  0.000000D+00  0.000000D+00  0.000000D+00  0.000000D+00  0.000000D+00
     54  0.494536D-02  0.000000D+00  0.000000D+00 -0.883443D-01  0.000000D+00
     55  0.000000D+00  0.000000D+00 -0.201153D+00  0.000000D+00  0.000000D+00
     56  0.000000D+00 -0.883443D-01  0.000000D+00  0.000000D+00 -0.129686D+00
     57  0.000000D+00  0.435113D-02  0.102971D-01  0.000000D+00  0.617059D-01
     58  0.000000D+00  0.354270D-01  0.838390D-01  0.000000D+00  0.136964D+00
     59  0.000000D+00 -0.837402D-03 -0.364092D-02  0.000000D+00  0.322421D-02
     60  0.000000D+00 -0.364092D-02 -0.791522D-02  0.000000D+00 -0.572199D-01
     61 -0.111089D-05  0.000000D+00  0.000000D+00  0.701104D-03  0.000000D+00
     62  0.000000D+00 -0.435066D-02  0.102963D-01  0.000000D+00 -0.617021D-01
     63  0.000000D+00 -0.354251D-01  0.838372D-01  0.000000D+00 -0.136958D+00
     64  0.000000D+00 -0.837241D-03  0.364046D-02  0.000000D+00  0.322502D-02
     65  0.000000D+00  0.364046D-02 -0.791451D-02  0.000000D+00  0.572168D-01
     66 -0.111066D-05  0.000000D+00  0.000000D+00  0.701021D-03  0.000000D+00
     67  0.000000D+00  0.000000D+00  0.000000D+00  0.000000D+00  0.000000D+00
     68  0.000000D+00  0.000000D+00  0.000000D+00  0.000000D+00  0.000000D+00
     69  0.000000D+00  0.000000D+00  0.000000D+00  0.000000D+00  0.000000D+00
     70  0.000000D+00  0.000000D+00  0.000000D+00  0.000000D+00  0.000000D+00
     71  0.000000D+00 -0.358921D+00  0.000000D+00  0.000000D+00 -0.980576D-01
     72  0.000000D+00  0.000000D+00 -0.358921D+00  0.000000D+00  0.000000D+00
     73  0.100000D+01  0.000000D+00  0.000000D+00 -0.358921D+00  0.000000D+00
     74  0.000000D+00  0.100000D+01  0.000000D+00  0.000000D+00  0.613840D+00
     75  0.000000D+00  0.000000D+00  0.100000D+01  0.000000D+00  0.000000D+00
     76 -0.358921D+00  0.000000D+00  0.000000D+00  0.100000D+01  0.000000D+00
     77  0.000000D+00  0.613840D+00  0.000000D+00  0.000000D+00  0.100000D+01
     78  0.000000D+00  0.000000D+00  0.613840D+00  0.000000D+00  0.000000D+00
     79 -0.980576D-01  0.000000D+00  0.000000D+00  0.613840D+00  0.000000D+00
     80  0.000000D+00  0.000000D+00  0.000000D+00  0.000000D+00  0.000000D+00
     81  0.000000D+00  0.000000D+00  0.000000D+00  0.000000D+00  0.000000D+00
     82  0.000000D+00  0.000000D+00  0.000000D+00  0.000000D+00  0.000000D+00
     83  0.000000D+00  0.000000D+00  0.000000D+00  0.000000D+00  0.000000D+00
     84  0.000000D+00  0.000000D+00  0.000000D+00  0.000000D+00  0.000000D+00
               36            37            38            39            40 
     36  0.100000D+01
     37  0.000000D+00  0.100000D+01
     38  0.000000D+00  0.000000D+00  0.100000D+01
     39  0.000000D+00  0.000000D+00  0.000000D+00  0.100000D+01
     40  0.000000D+00  0.000000D+00  0.000000D+00  0.000000D+00  0.100000D+01
     41  0.000000D+00  0.000000D+00  0.000000D+00  0.000000D+00  0.000000D+00
     42  0.000000D+00  0.000000D+00  0.000000D+00  0.000000D+00  0.000000D+00
     43  0.951862D-01  0.000000D+00 -0.182513D-01  0.000000D+00  0.000000D+00
     44  0.504923D+00  0.000000D+00 -0.117765D+00  0.000000D+00  0.000000D+00
     45  0.541942D+00  0.000000D+00 -0.571384D-01  0.000000D+00  0.000000D+00
     46  0.000000D+00  0.000000D+00  0.000000D+00  0.000000D+00  0.000000D+00
     47 -0.245769D+00  0.000000D+00  0.140719D+00  0.000000D+00  0.000000D+00
     48  0.000000D+00  0.165327D+00  0.000000D+00  0.000000D+00  0.142860D+00
     49  0.000000D+00  0.000000D+00  0.000000D+00  0.000000D+00  0.000000D+00
     50 -0.239576D+00  0.000000D+00  0.141504D-01  0.000000D+00  0.000000D+00
     51  0.000000D+00  0.467844D+00  0.000000D+00  0.000000D+00  0.198513D+00
     52 -0.237807D-01  0.000000D+00  0.916795D-01  0.000000D+00  0.000000D+00
     53  0.000000D+00  0.000000D+00  0.000000D+00  0.439376D-01  0.000000D+00
     54  0.000000D+00 -0.129686D+00  0.000000D+00  0.000000D+00 -0.225305D+00
     55 -0.411893D-01  0.000000D+00  0.826915D-01  0.000000D+00  0.000000D+00
     56  0.000000D+00  0.000000D+00  0.000000D+00  0.000000D+00  0.000000D+00
     57  0.146029D+00  0.000000D+00 -0.130628D-01  0.000000D+00  0.000000D+00
     58  0.324128D+00  0.000000D+00 -0.369739D-01  0.000000D+00  0.000000D+00
     59 -0.572199D-01  0.000000D+00  0.570153D-02  0.000000D+00  0.000000D+00
     60 -0.108009D+00  0.000000D+00  0.134928D-01  0.000000D+00  0.000000D+00
     61  0.000000D+00  0.274031D-01  0.000000D+00  0.171112D-02  0.404940D-02
     62  0.146024D+00  0.000000D+00 -0.130619D-01  0.000000D+00  0.000000D+00
     63  0.324125D+00  0.000000D+00 -0.369733D-01  0.000000D+00  0.000000D+00
     64  0.572168D-01  0.000000D+00 -0.570090D-02  0.000000D+00  0.000000D+00
     65 -0.108008D+00  0.000000D+00  0.134918D-01  0.000000D+00  0.000000D+00
     66  0.000000D+00  0.274018D-01  0.000000D+00 -0.171089D-02  0.404901D-02
     67  0.000000D+00  0.000000D+00  0.000000D+00  0.000000D+00  0.000000D+00
     68  0.000000D+00  0.000000D+00  0.000000D+00  0.000000D+00  0.000000D+00
     69  0.000000D+00  0.000000D+00  0.000000D+00  0.000000D+00  0.000000D+00
     70  0.000000D+00  0.000000D+00  0.000000D+00  0.000000D+00  0.000000D+00
     71  0.000000D+00  0.000000D+00  0.000000D+00  0.000000D+00  0.000000D+00
     72 -0.980576D-01  0.000000D+00  0.000000D+00  0.000000D+00  0.000000D+00
     73  0.000000D+00 -0.980576D-01  0.000000D+00  0.000000D+00  0.000000D+00
     74  0.000000D+00  0.000000D+00  0.000000D+00  0.000000D+00  0.000000D+00
     75  0.613840D+00  0.000000D+00  0.000000D+00  0.000000D+00  0.000000D+00
     76  0.000000D+00  0.613840D+00  0.000000D+00  0.000000D+00  0.000000D+00
     77  0.000000D+00  0.000000D+00  0.000000D+00  0.000000D+00  0.000000D+00
     78  0.100000D+01  0.000000D+00  0.000000D+00  0.000000D+00  0.000000D+00
     79  0.000000D+00  0.100000D+01  0.000000D+00  0.000000D+00  0.000000D+00
     80  0.000000D+00  0.000000D+00  0.100000D+01  0.000000D+00  0.000000D+00
     81  0.000000D+00  0.000000D+00  0.000000D+00  0.100000D+01  0.000000D+00
     82  0.000000D+00  0.000000D+00  0.000000D+00  0.000000D+00  0.100000D+01
     83  0.000000D+00  0.000000D+00  0.000000D+00  0.000000D+00  0.000000D+00
     84  0.000000D+00  0.000000D+00  0.000000D+00  0.000000D+00  0.000000D+00
               41            42            43            44            45 
     41  0.100000D+01
     42  0.000000D+00  0.100000D+01
     43 -0.316121D-01  0.000000D+00  0.100000D+01
     44 -0.203975D+00  0.000000D+00  0.325565D+00  0.100000D+01
     45 -0.989665D-01  0.000000D+00  0.151774D+00  0.798485D+00  0.100000D+01
     46  0.000000D+00  0.142860D+00  0.000000D+00  0.000000D+00  0.000000D+00
     47  0.243732D+00  0.000000D+00  0.000000D+00  0.000000D+00  0.000000D+00
     48  0.000000D+00  0.000000D+00  0.000000D+00  0.000000D+00  0.000000D+00
     49  0.000000D+00  0.198513D+00  0.000000D+00  0.000000D+00  0.000000D+00
     50  0.245093D-01  0.000000D+00  0.000000D+00  0.000000D+00  0.000000D+00
     51  0.000000D+00  0.000000D+00  0.000000D+00  0.000000D+00  0.000000D+00
     52  0.826915D-01  0.000000D+00  0.000000D+00  0.000000D+00  0.000000D+00
     53  0.000000D+00  0.000000D+00  0.000000D+00  0.000000D+00  0.000000D+00
     54  0.000000D+00  0.000000D+00  0.000000D+00  0.000000D+00  0.000000D+00
     55  0.187164D+00  0.000000D+00  0.000000D+00  0.000000D+00  0.000000D+00
     56  0.000000D+00 -0.225305D+00  0.000000D+00  0.000000D+00  0.000000D+00
     57 -0.157698D-01  0.162243D-01  0.467919D-01  0.354656D+00  0.446735D+00
     58 -0.446358D-01  0.459224D-01  0.852098D-01  0.513041D+00  0.755304D+00
     59  0.978677D-02 -0.425902D-02 -0.631701D-01 -0.297404D+00 -0.157174D+00
     60  0.150618D-01 -0.179510D-01 -0.403242D-01 -0.189846D+00 -0.100331D+00
     61  0.000000D+00  0.000000D+00  0.000000D+00  0.000000D+00  0.000000D+00
     62 -0.157691D-01 -0.162228D-01  0.467919D-01  0.354656D+00  0.446735D+00
     63 -0.446361D-01 -0.459205D-01  0.852098D-01  0.513041D+00  0.755304D+00
     64 -0.978582D-02 -0.425828D-02  0.631688D-01  0.297398D+00  0.157171D+00
     65  0.150612D-01  0.179492D-01 -0.403262D-01 -0.189855D+00 -0.100336D+00
     66  0.000000D+00  0.000000D+00  0.000000D+00  0.000000D+00  0.000000D+00
     67  0.000000D+00  0.000000D+00  0.000000D+00 -0.186330D-02 -0.100405D-01
     68  0.000000D+00  0.000000D+00  0.117820D-05  0.203176D-01  0.823127D-01
     69  0.000000D+00  0.000000D+00  0.132883D-01  0.168612D+00  0.339229D+00
     70  0.000000D+00  0.000000D+00  0.451358D-01  0.312268D+00  0.535201D+00
     71  0.000000D+00  0.000000D+00  0.000000D+00  0.000000D+00  0.000000D+00
     72  0.000000D+00  0.000000D+00 -0.130569D-05 -0.166699D-01 -0.248889D-01
     73  0.000000D+00  0.000000D+00  0.000000D+00  0.000000D+00  0.000000D+00
     74  0.000000D+00  0.000000D+00  0.000000D+00  0.000000D+00  0.000000D+00
     75  0.000000D+00  0.000000D+00  0.105327D-01  0.185903D+00  0.202132D+00
     76  0.000000D+00  0.000000D+00  0.000000D+00  0.000000D+00  0.000000D+00
     77  0.000000D+00  0.000000D+00  0.000000D+00  0.000000D+00  0.000000D+00
     78  0.000000D+00  0.000000D+00  0.951862D-01  0.504923D+00  0.541942D+00
     79  0.000000D+00  0.000000D+00  0.000000D+00  0.000000D+00  0.000000D+00
     80  0.000000D+00  0.000000D+00 -0.182513D-01 -0.117765D+00 -0.571384D-01
     81  0.000000D+00  0.000000D+00  0.000000D+00  0.000000D+00  0.000000D+00
     82  0.000000D+00  0.000000D+00  0.000000D+00  0.000000D+00  0.000000D+00
     83  0.100000D+01  0.000000D+00 -0.316121D-01 -0.203975D+00 -0.989665D-01
     84  0.000000D+00  0.100000D+01  0.000000D+00  0.000000D+00  0.000000D+00
               46            47            48            49            50 
     46  0.100000D+01
     47  0.000000D+00  0.100000D+01
     48  0.000000D+00  0.000000D+00  0.100000D+01
     49  0.531899D+00  0.000000D+00  0.000000D+00  0.100000D+01
     50  0.000000D+00  0.531899D+00  0.000000D+00  0.000000D+00  0.100000D+01
     51  0.000000D+00  0.000000D+00  0.531899D+00  0.000000D+00  0.000000D+00
     52  0.000000D+00  0.000000D+00  0.000000D+00  0.000000D+00  0.000000D+00
     53  0.000000D+00  0.000000D+00  0.000000D+00  0.000000D+00  0.000000D+00
     54  0.000000D+00  0.000000D+00  0.000000D+00  0.000000D+00  0.000000D+00
     55  0.000000D+00  0.000000D+00  0.000000D+00  0.000000D+00  0.000000D+00
     56  0.000000D+00  0.000000D+00  0.000000D+00  0.000000D+00  0.000000D+00
     57  0.320842D+00  0.204807D+00  0.000000D+00  0.476027D+00  0.303869D+00
     58  0.176183D+00  0.112465D+00  0.000000D+00  0.451639D+00  0.288301D+00
     59 -0.231945D+00 -0.270587D+00  0.000000D+00  0.503928D-01 -0.134626D+00
     60 -0.270587D+00  0.192164D-01  0.000000D+00 -0.134626D+00  0.175354D+00
     61  0.000000D+00  0.000000D+00  0.191944D+00  0.000000D+00  0.000000D+00
     62 -0.320835D+00  0.204818D+00  0.000000D+00 -0.476018D+00  0.303884D+00
     63 -0.176179D+00  0.112471D+00  0.000000D+00 -0.451630D+00  0.288315D+00
     64 -0.231928D+00  0.270595D+00  0.000000D+00  0.504012D-01  0.134630D+00
     65  0.270595D+00  0.191995D-01  0.000000D+00  0.134630D+00  0.175345D+00
     66  0.000000D+00  0.000000D+00  0.191944D+00  0.000000D+00  0.000000D+00
     67  0.000000D+00  0.209836D-02  0.000000D+00  0.000000D+00  0.219247D-01
     68  0.000000D+00 -0.256243D-01  0.000000D+00  0.000000D+00 -0.171676D+00
     69  0.000000D+00 -0.187432D+00  0.000000D+00  0.000000D+00 -0.538685D+00
     70  0.000000D+00 -0.193509D+00  0.000000D+00  0.000000D+00 -0.571769D+00
     71 -0.312803D-02  0.000000D+00  0.000000D+00 -0.221756D-01  0.000000D+00
     72  0.000000D+00  0.240077D-01  0.000000D+00  0.000000D+00  0.384042D-01
     73  0.000000D+00  0.000000D+00 -0.312803D-02  0.000000D+00  0.000000D+00
     74  0.519051D-01  0.000000D+00  0.000000D+00  0.179542D+00  0.000000D+00
     75  0.000000D+00 -0.239979D+00  0.000000D+00  0.000000D+00 -0.233726D+00
     76  0.000000D+00  0.000000D+00  0.519051D-01  0.000000D+00  0.000000D+00
     77  0.165327D+00  0.000000D+00  0.000000D+00  0.467844D+00  0.000000D+00
     78  0.000000D+00 -0.245769D+00  0.000000D+00  0.000000D+00 -0.239576D+00
     79  0.000000D+00  0.000000D+00  0.165327D+00  0.000000D+00  0.000000D+00
     80  0.000000D+00  0.140719D+00  0.000000D+00  0.000000D+00  0.141504D-01
     81  0.000000D+00  0.000000D+00  0.000000D+00  0.000000D+00  0.000000D+00
     82  0.000000D+00  0.000000D+00  0.142860D+00  0.000000D+00  0.000000D+00
     83  0.000000D+00  0.243732D+00  0.000000D+00  0.000000D+00  0.245093D-01
     84  0.142860D+00  0.000000D+00  0.000000D+00  0.198513D+00  0.000000D+00
               51            52            53            54            55 
     51  0.100000D+01
     52  0.000000D+00  0.100000D+01
     53  0.000000D+00  0.000000D+00  0.100000D+01
     54  0.000000D+00  0.000000D+00  0.000000D+00  0.100000D+01
     55  0.000000D+00  0.000000D+00  0.000000D+00  0.000000D+00  0.100000D+01
     56  0.000000D+00  0.000000D+00  0.000000D+00  0.000000D+00  0.000000D+00
     57  0.000000D+00 -0.147558D+00  0.000000D+00  0.000000D+00  0.107592D+00
     58  0.000000D+00 -0.249902D-01  0.000000D+00  0.000000D+00  0.182216D-01
     59  0.000000D+00  0.120235D+00  0.000000D+00  0.000000D+00  0.685115D-01
     60  0.000000D+00  0.767513D-01  0.000000D+00  0.000000D+00 -0.300629D+00
     61  0.261292D+00  0.000000D+00  0.269732D+00  0.172182D+00  0.000000D+00
     62  0.000000D+00 -0.147558D+00  0.000000D+00  0.000000D+00  0.107578D+00
     63  0.000000D+00 -0.249902D-01  0.000000D+00  0.000000D+00  0.182192D-01
     64  0.000000D+00 -0.120233D+00  0.000000D+00  0.000000D+00 -0.685372D-01
     65  0.000000D+00  0.767551D-01  0.000000D+00  0.000000D+00 -0.300627D+00
     66  0.261292D+00  0.000000D+00 -0.269726D+00  0.172190D+00  0.000000D+00
     67  0.000000D+00  0.686258D-03  0.000000D+00  0.000000D+00  0.118863D-02
     68  0.000000D+00 -0.120779D-01  0.000000D+00  0.000000D+00 -0.209196D-01
     69  0.000000D+00 -0.721000D-01  0.000000D+00  0.000000D+00 -0.124881D+00
     70  0.000000D+00 -0.360482D-01  0.000000D+00  0.000000D+00 -0.624373D-01
     71  0.000000D+00  0.000000D+00  0.000000D+00  0.000000D+00  0.000000D+00
     72  0.000000D+00  0.138683D-01  0.000000D+00  0.000000D+00  0.240207D-01
     73 -0.221756D-01  0.000000D+00  0.000000D+00  0.494536D-02  0.000000D+00
     74  0.000000D+00  0.000000D+00  0.000000D+00  0.000000D+00  0.000000D+00
     75  0.000000D+00 -0.116136D+00  0.000000D+00  0.000000D+00 -0.201153D+00
     76  0.179542D+00  0.000000D+00  0.000000D+00 -0.883443D-01  0.000000D+00
     77  0.000000D+00  0.000000D+00  0.000000D+00  0.000000D+00  0.000000D+00
     78  0.000000D+00 -0.237807D-01  0.000000D+00  0.000000D+00 -0.411893D-01
     79  0.467844D+00  0.000000D+00  0.000000D+00 -0.129686D+00  0.000000D+00
     80  0.000000D+00  0.916795D-01  0.000000D+00  0.000000D+00  0.826915D-01
     81  0.000000D+00  0.000000D+00  0.439376D-01  0.000000D+00  0.000000D+00
     82  0.198513D+00  0.000000D+00  0.000000D+00 -0.225305D+00  0.000000D+00
     83  0.000000D+00  0.826915D-01  0.000000D+00  0.000000D+00  0.187164D+00
     84  0.000000D+00  0.000000D+00  0.000000D+00  0.000000D+00  0.000000D+00
               56            57            58            59            60 
     56  0.100000D+01
     57  0.231828D+00  0.100000D+01
     58  0.392619D-01  0.684800D+00  0.100000D+01
     59 -0.261385D+00  0.000000D+00  0.000000D+00  0.100000D+01
     60 -0.703307D-02  0.000000D+00  0.000000D+00  0.000000D+00  0.100000D+01
     61  0.000000D+00  0.000000D+00  0.000000D+00  0.000000D+00  0.000000D+00
     62 -0.231834D+00  0.431110D-01  0.200193D+00 -0.481243D-01  0.000000D+00
     63 -0.392630D-01  0.200193D+00  0.464088D+00 -0.123567D+00  0.193149D-05
     64 -0.261380D+00  0.481243D-01  0.123567D+00 -0.589628D-01  0.102325D-05
     65  0.706004D-02  0.000000D+00 -0.193149D-05  0.102325D-05  0.649935D-02
     66  0.000000D+00  0.000000D+00  0.000000D+00  0.000000D+00  0.000000D+00
     67  0.000000D+00 -0.750949D-05 -0.259855D-02  0.000000D+00  0.000000D+00
     68  0.000000D+00  0.183544D-03  0.225403D-01 -0.734271D-05 -0.173767D-04
     69  0.000000D+00  0.134956D-01  0.123167D+00 -0.516733D-02 -0.122286D-01
     70  0.000000D+00  0.795692D-01  0.263574D+00 -0.244981D-01 -0.579754D-01
     71  0.494536D-02 -0.844906D-04 -0.365207D-02  0.312412D-05  0.100223D-04
     72  0.000000D+00 -0.199949D-03 -0.864272D-02  0.100223D-04  0.226071D-04
     73  0.000000D+00  0.000000D+00  0.000000D+00  0.000000D+00  0.000000D+00
     74 -0.883443D-01  0.435113D-02  0.354270D-01 -0.837402D-03 -0.364092D-02
     75  0.000000D+00  0.102971D-01  0.838390D-01 -0.364092D-02 -0.791522D-02
     76  0.000000D+00  0.000000D+00  0.000000D+00  0.000000D+00  0.000000D+00
     77 -0.129686D+00  0.617059D-01  0.136964D+00  0.322421D-02 -0.572199D-01
     78  0.000000D+00  0.146029D+00  0.324128D+00 -0.572199D-01 -0.108009D+00
     79  0.000000D+00  0.000000D+00  0.000000D+00  0.000000D+00  0.000000D+00
     80  0.000000D+00 -0.130628D-01 -0.369739D-01  0.570153D-02  0.134928D-01
     81  0.000000D+00  0.000000D+00  0.000000D+00  0.000000D+00  0.000000D+00
     82  0.000000D+00  0.000000D+00  0.000000D+00  0.000000D+00  0.000000D+00
     83  0.000000D+00 -0.157698D-01 -0.446358D-01  0.978677D-02  0.150618D-01
     84 -0.225305D+00  0.162243D-01  0.459224D-01 -0.425902D-02 -0.179510D-01
               61            62            63            64            65 
     61  0.100000D+01
     62  0.000000D+00  0.100000D+01
     63  0.000000D+00  0.684800D+00  0.100000D+01
     64  0.000000D+00  0.000000D+00  0.000000D+00  0.100000D+01
     65  0.000000D+00  0.000000D+00  0.000000D+00  0.000000D+00  0.100000D+01
     66  0.649935D-02  0.000000D+00  0.000000D+00  0.000000D+00  0.000000D+00
     67  0.000000D+00 -0.750837D-05 -0.259845D-02  0.000000D+00  0.000000D+00
     68  0.000000D+00  0.183521D-03  0.225394D-01  0.734111D-05 -0.173735D-04
     69  0.000000D+00  0.134947D-01  0.123163D+00  0.516679D-02 -0.122278D-01
     70  0.000000D+00  0.795664D-01  0.263568D+00  0.244967D-01 -0.579739D-01
[...]
  82        8D-1        0.00000   0.00000   0.00000   0.00000   0.00000
  83        8D+2        0.58101   0.00000   0.00140  -0.05146   0.01489
  84        8D-2        0.00000   0.44617   0.00000   0.00000   0.00000
                          46        47        48        49        50
  46        4PX         1.05488
  47        4PY         0.00000   0.93812
  48        4PZ         0.00000   0.00000   0.69398
  49        5PX        -0.18331   0.00000   0.00000   0.25063
  50        5PY         0.00000  -0.14217   0.00000   0.00000   0.21618
  51        5PZ         0.00000   0.00000  -0.16485   0.00000   0.00000
  52        6D 0        0.00000   0.00000   0.00000   0.00000   0.00000
  53        6D+1        0.00000   0.00000   0.00000   0.00000   0.00000
  54        6D-1        0.00000   0.00000   0.00000   0.00000   0.00000
  55        6D+2        0.00000   0.00000   0.00000   0.00000   0.00000
  56        6D-2        0.00000   0.00000   0.00000   0.00000   0.00000
  57 6   H  1S         -0.10456  -0.04818   0.00000  -0.01772   0.01260
  58        2S          0.02865   0.01224   0.00000  -0.01422  -0.01574
  59        3PX        -0.03507  -0.02813   0.00000  -0.00182   0.00330
  60        3PY        -0.02941   0.00103   0.00000   0.00517  -0.00033
  61        3PZ         0.00000   0.00000  -0.00403   0.00000   0.00000
  62 7   H  1S         -0.10456  -0.04818   0.00000  -0.01772   0.01261
  63        2S          0.02864   0.01224   0.00000  -0.01422  -0.01575
  64        3PX        -0.03506  -0.02814   0.00000  -0.00182   0.00330
  65        3PY        -0.02941   0.00103   0.00000   0.00517  -0.00033
  66        3PZ         0.00000   0.00000  -0.00403   0.00000   0.00000
  67 8   S  1S          0.00000  -0.00001   0.00000   0.00000   0.00014
  68        2S          0.00000   0.00112   0.00000   0.00000  -0.00110
  69        3S          0.00000  -0.00197   0.00000   0.00000  -0.13512
  70        4S          0.00000  -0.00966   0.00000   0.00000   0.15682
  71        5PX         0.00000   0.00000   0.00000  -0.00039   0.00000
  72        5PY         0.00000   0.00096   0.00000   0.00000  -0.00132
  73        5PZ         0.00000   0.00000  -0.00000   0.00000   0.00000
  74        6PX         0.00107   0.00000   0.00000  -0.01146   0.00000
  75        6PY         0.00000  -0.03888   0.00000   0.00000   0.01833
  76        6PZ         0.00000   0.00000   0.00203   0.00000   0.00000
  77        7PX        -0.00368   0.00000   0.00000   0.06988   0.00000
  78        7PY         0.00000   0.00140   0.00000   0.00000  -0.01114
  79        7PZ         0.00000   0.00000  -0.00800   0.00000   0.00000
  80        8D 0        0.00000  -0.01801   0.00000   0.00000   0.00087
  81        8D+1        0.00000   0.00000   0.00000   0.00000   0.00000
  82        8D-1        0.00000   0.00000  -0.00566   0.00000   0.00000
  83        8D+2        0.00000  -0.05176   0.00000   0.00000   0.00101
  84        8D-2       -0.00988   0.00000   0.00000   0.02103   0.00000
                          51        52        53        54        55
  51        5PZ         0.42959
  52        6D 0        0.00000   0.01134
  53        6D+1        0.00000   0.00000   0.00091
  54        6D-1        0.00000   0.00000   0.00000   0.00675
  55        6D+2        0.00000   0.00000   0.00000   0.00000   0.01485
  56        6D-2        0.00000   0.00000   0.00000   0.00000   0.00000
  57 6   H  1S          0.00000  -0.00404   0.00000   0.00000  -0.00218
  58        2S          0.00000   0.00042   0.00000   0.00000   0.00026
  59        3PX         0.00000  -0.00143   0.00000   0.00000   0.00069
  60        3PY         0.00000  -0.00059   0.00000   0.00000  -0.00136
  61        3PZ         0.00824   0.00000   0.00002   0.00035   0.00000
  62 7   H  1S          0.00000  -0.00404   0.00000   0.00000  -0.00218
  63        2S          0.00000   0.00042   0.00000   0.00000   0.00026
  64        3PX         0.00000  -0.00143   0.00000   0.00000   0.00069
  65        3PY         0.00000  -0.00059   0.00000   0.00000  -0.00136
  66        3PZ         0.00824   0.00000   0.00002   0.00035   0.00000
  67 8   S  1S          0.00000  -0.00000   0.00000   0.00000  -0.00001
  68        2S          0.00000   0.00016   0.00000   0.00000   0.00055
  69        3S          0.00000  -0.00035   0.00000   0.00000  -0.00225
  70        4S          0.00000   0.00003   0.00000   0.00000  -0.00014
  71        5PX         0.00000   0.00000   0.00000   0.00000   0.00000
  72        5PY         0.00000   0.00021   0.00000   0.00000   0.00075
  73        5PZ        -0.00005   0.00000   0.00000   0.00001   0.00000
  74        6PX         0.00000   0.00000   0.00000   0.00000   0.00000
  75        6PY         0.00000  -0.00303   0.00000   0.00000  -0.01062
  76        6PZ        -0.02281   0.00000   0.00000   0.00058   0.00000
  77        7PX         0.00000   0.00000   0.00000   0.00000   0.00000
  78        7PY         0.00000   0.00033   0.00000   0.00000   0.00068
  79        7PZ         0.09186   0.00000   0.00000  -0.00146   0.00000
  80        8D 0        0.00000   0.00106   0.00000   0.00000  -0.00117
  81        8D+1        0.00000   0.00000   0.00093   0.00000   0.00000
  82        8D-1       -0.00355   0.00000   0.00000   0.01240   0.00000
  83        8D+2        0.00000  -0.00112   0.00000   0.00000  -0.00022
  84        8D-2        0.00000   0.00000   0.00000   0.00000   0.00000
                          56        57        58        59        60
  56        6D-2        0.03803
  57 6   H  1S         -0.00453   0.93861
  58        2S          0.00073  -0.11670   0.09787
  59        3PX        -0.00518   0.00000   0.00000   0.05066
  60        3PY        -0.00013   0.00000   0.00000   0.00000   0.02229
  61        3PZ         0.00000   0.00000   0.00000   0.00000   0.00000
  62 7   H  1S         -0.00453  -0.00005  -0.00220   0.00055   0.00000
  63        2S          0.00073  -0.00220   0.00219  -0.00053   0.00000
  64        3PX        -0.00518   0.00055  -0.00053   0.00011   0.00000
  65        3PY        -0.00013  -0.00000  -0.00000  -0.00000  -0.00003
  66        3PZ         0.00000   0.00000   0.00000   0.00000   0.00000
  67 8   S  1S          0.00000  -0.00000   0.00000   0.00000  -0.00000
  68        2S          0.00000  -0.00000   0.00015  -0.00000   0.00000
  69        3S          0.00000   0.00069  -0.00983   0.00010  -0.00019
  70        4S          0.00000  -0.00515   0.02393  -0.00061   0.00065
  71        5PX         0.00005   0.00000   0.00003   0.00000   0.00000
  72        5PY         0.00000   0.00000   0.00002  -0.00000   0.00000
  73        5PZ         0.00000   0.00000   0.00000   0.00000   0.00000
  74        6PX        -0.00377   0.00019  -0.00181   0.00000  -0.00005
  75        6PY         0.00000  -0.00003  -0.00110  -0.00000  -0.00003
  76        6PZ         0.00000   0.00000   0.00000   0.00000   0.00000
  77        7PX         0.00726  -0.00404   0.01100   0.00003   0.00125
  78        7PY         0.00000   0.00107   0.00047  -0.00020  -0.00035
  79        7PZ         0.00000   0.00000   0.00000   0.00000   0.00000
  80        8D 0        0.00000  -0.00001   0.00122  -0.00003   0.00002
  81        8D+1        0.00000   0.00000   0.00000   0.00000   0.00000
  82        8D-1        0.00000   0.00000   0.00000   0.00000   0.00000
  83        8D+2        0.00000   0.00007  -0.00097  -0.00003  -0.00002
  84        8D-2        0.01065   0.00064  -0.00354   0.00007   0.00015
                          61        62        63        64        65
  61        3PZ         0.00253
  62 7   H  1S          0.00000   0.93861
  63        2S          0.00000  -0.11670   0.09787
  64        3PX         0.00000   0.00000   0.00000   0.05066
  65        3PY         0.00000   0.00000   0.00000   0.00000   0.02230
  66        3PZ         0.00002   0.00000   0.00000   0.00000   0.00000
  67 8   S  1S          0.00000  -0.00000   0.00000   0.00000  -0.00000
  68        2S          0.00000  -0.00000   0.00015  -0.00000   0.00000
  69        3S          0.00000   0.00069  -0.00983   0.00010  -0.00019
  70        4S          0.00000  -0.00515   0.02393  -0.00061   0.00065
  71        5PX         0.00000   0.00000   0.00003   0.00000   0.00000
  72        5PY         0.00000   0.00000   0.00002  -0.00000   0.00000
  73        5PZ         0.00000   0.00000   0.00000   0.00000   0.00000
  74        6PX         0.00000   0.00019  -0.00181   0.00000  -0.00005
  75        6PY         0.00000  -0.00003  -0.00110  -0.00000  -0.00003
  76        6PZ        -0.00001   0.00000   0.00000   0.00000   0.00000
  77        7PX         0.00000  -0.00404   0.01100   0.00003   0.00125
  78        7PY         0.00000   0.00107   0.00047  -0.00020  -0.00035
  79        7PZ         0.00045   0.00000   0.00000   0.00000   0.00000
  80        8D 0        0.00000  -0.00001   0.00122  -0.00003   0.00002
  81        8D+1        0.00000   0.00000   0.00000   0.00000   0.00000
  82        8D-1       -0.00004   0.00000   0.00000   0.00000   0.00000
  83        8D+2        0.00000   0.00007  -0.00097  -0.00003  -0.00002
  84        8D-2        0.00000   0.00064  -0.00354   0.00007   0.00015
                          66        67        68        69        70
  66        3PZ         0.00253
  67 8   S  1S          0.00000   0.54782
  68        2S          0.00000  -0.05333   0.82025
  69        3S          0.00000   0.00752  -0.37903   2.34278
  70        4S          0.00000  -0.00231   0.11823  -1.24556   1.07817
  71        5PX         0.00000   0.00000   0.00000   0.00000   0.00000
  72        5PY         0.00000   0.00000   0.00000   0.00000   0.00000
  73        5PZ         0.00000   0.00000   0.00000   0.00000   0.00000
  74        6PX         0.00000   0.00000   0.00000   0.00000   0.00000
  75        6PY         0.00000   0.00000   0.00000   0.00000   0.00000
  76        6PZ        -0.00001   0.00000   0.00000   0.00000   0.00000
  77        7PX         0.00000   0.00000   0.00000   0.00000   0.00000
  78        7PY         0.00000   0.00000   0.00000   0.00000   0.00000
  79        7PZ         0.00045   0.00000   0.00000   0.00000   0.00000
  80        8D 0        0.00000   0.00000   0.00000   0.00000   0.00000
  81        8D+1        0.00000   0.00000   0.00000   0.00000   0.00000
  82        8D-1       -0.00004   0.00000   0.00000   0.00000   0.00000
  83        8D+2        0.00000   0.00000   0.00000   0.00000   0.00000
  84        8D-2        0.00000   0.00000   0.00000   0.00000   0.00000
                          71        72        73        74        75
  71        5PX         0.59063
  72        5PY         0.00000   0.59625
  73        5PZ         0.00000   0.00000   0.58964
  74        6PX        -0.10084   0.00000   0.00000   0.87878
  75        6PY         0.00000  -0.10532   0.00000   0.00000   0.81426
  76        6PZ         0.00000   0.00000  -0.09765   0.00000   0.00000
  77        7PX         0.01105   0.00000   0.00000  -0.24357   0.00000
  78        7PY         0.00000   0.01214   0.00000   0.00000  -0.13278
  79        7PZ         0.00000   0.00000   0.00921   0.00000   0.00000
  80        8D 0        0.00000   0.00000   0.00000   0.00000   0.00000
  81        8D+1        0.00000   0.00000   0.00000   0.00000   0.00000
  82        8D-1        0.00000   0.00000   0.00000   0.00000   0.00000
  83        8D+2        0.00000   0.00000   0.00000   0.00000   0.00000
  84        8D-2        0.00000   0.00000   0.00000   0.00000   0.00000
                          76        77        78        79        80
  76        6PZ         0.79367
  77        7PX         0.00000   0.44335
  78        7PY         0.00000   0.00000   0.07875
  79        7PZ        -0.14297   0.00000   0.00000   0.14836
  80        8D 0        0.00000   0.00000   0.00000   0.00000   0.52465
  81        8D+1        0.00000   0.00000   0.00000   0.00000   0.00000
  82        8D-1        0.00000   0.00000   0.00000   0.00000   0.00000
  83        8D+2        0.00000   0.00000   0.00000   0.00000   0.00000
  84        8D-2        0.00000   0.00000   0.00000   0.00000   0.00000
                          81        82        83        84
  81        8D+1        0.49710
  82        8D-1        0.00000   0.47492
  83        8D+2        0.00000   0.00000   0.58101
  84        8D-2        0.00000   0.00000   0.00000   0.44617
     Gross orbital populations:
                           1
   1 1   C  1S          1.00451
   2        2S          1.29994
   3        3S         -0.13241
   4        4PX         1.15663
   5        4PY         1.10609
   6        4PZ         1.01887
   7        5PX         0.17839
   8        5PY         0.20431
   9        5PZ         0.69333
  10        6D 0       -0.00532
  11        6D+1        0.00377
  12        6D-1        0.03795
  13        6D+2       -0.00553
  14        6D-2        0.06799
  15 2   H  1S          1.11728
  16        2S          0.08352
  17        3PX        -0.09725
  18        3PY        -0.02878
  19        3PZ         0.01505
  20 3   H  1S          1.11728
  21        2S          0.08352
  22        3PX        -0.09725
  23        3PY        -0.02879
  24        3PZ         0.01505
  25 4   S  1S          1.00001
  26        2S          1.00289
  27        3S          1.11687
  28        4S          0.34488
  29        5PX         1.00112
  30        5PY         1.00422
  31        5PZ         1.00233
  32        6PX         1.03375
  33        6PY         1.10402
  34        6PZ         1.06567
  35        7PX         0.60153
  36        7PY        -0.13326
  37        7PZ         0.19582
  38        8D 0        0.99094
  39        8D+1        0.99609
  40        8D-1        0.95607
  41        8D+2        0.98370
  42        8D-2        0.92522
  43 5   C  1S          1.00451
  44        2S          1.29994
  45        3S         -0.13241
  46        4PX         1.15663
  47        4PY         1.10609
  48        4PZ         1.01887
  49        5PX         0.17839
  50        5PY         0.20431
  51        5PZ         0.69333
  52        6D 0       -0.00532
  53        6D+1        0.00377
  54        6D-1        0.03795
  55        6D+2       -0.00553
  56        6D-2        0.06799
  57 6   H  1S          1.11728
  58        2S          0.08352
  59        3PX        -0.09725
  60        3PY        -0.02878
  61        3PZ         0.01505
  62 7   H  1S          1.11728
  63        2S          0.08352
  64        3PX        -0.09725
  65        3PY        -0.02879
  66        3PZ         0.01505
  67 8   S  1S          1.00001
  68        2S          1.00289
  69        3S          1.11687
  70        4S          0.34488
  71        5PX         1.00112
  72        5PY         1.00422
  73        5PZ         1.00233
  74        6PX         1.03375
  75        6PY         1.10402
  76        6PZ         1.06567
  77        7PX         0.60153
  78        7PY        -0.13326
  79        7PZ         0.19582
  80        8D 0        0.99094
  81        8D+1        0.99609
  82        8D-1        0.95607
  83        8D+2        0.98370
  84        8D-2        0.92522
          Condensed to atoms (all electrons):
               1          2          3          4          5          6
     1  C    3.994223  -0.345698  -0.345693   0.011425   3.994223  -0.345698
     2  H   -0.345698   0.878556  -0.002121   0.014166  -0.345698   0.878556
     3  H   -0.345693  -0.002121   0.878556   0.014163  -0.345693  -0.002121
     4  S    0.011425   0.014166   0.014163   7.556180   0.011425   0.014166
     5  C    3.994223  -0.345698  -0.345693   0.011425   3.994223  -0.345698
     6  H   -0.345698   0.878556  -0.002121   0.014166  -0.345698   0.878556
     7  H   -0.345693  -0.002121   0.878556   0.014163  -0.345693  -0.002121
     8  S    0.011425   0.014166   0.014163   7.556180   0.011425   0.014166
               7          8
     1  C   -0.345693   0.011425
     2  H   -0.002121   0.014166
     3  H    0.878556   0.014163
     4  S    0.014163   7.556180
     5  C   -0.345693   0.011425
     6  H   -0.002121   0.014166
     7  H    0.878556   0.014163
     8  S    0.014163   7.556180
 Mulliken charges:
               1
     1  C   -0.628513
     2  H   -0.089808
     3  H   -0.089810
     4  S    0.808130
     5  C   -0.628513
     6  H   -0.089808
     7  H   -0.089810
     8  S    0.808130
 Sum of Mulliken charges =  -0.00000
 Mulliken charges with hydrogens summed into heavy atoms:
               1
     1  C   -0.987748
     4  S    0.808130
     5  C   -0.628513
     8  S    0.808130
 N-N=                Inf E-N=-2.889603525153D+03  KE= 5.115010147062D+02
 Orbital energies and kinetic energies (alpha):
                                 1                 2
   1         O              -298.528320        132.111451
   2         O               -35.467826         18.129355
   3         O               -29.229516         20.302477
   4         O               -29.122876         20.164352
   5         O               -29.119764         20.158889
   6         O               -27.860477         10.869386
   7         O                -2.925738          1.637187
   8         O                -2.712886          1.838956
   9         O                -2.471809          3.102458
  10         O                -2.469175          2.574296
  11         O                -2.329748          2.815540
  12         O                -2.283854          2.158492
  13         O                -2.281746          2.195394
  14         O                -2.149243          2.564242
  15         O                -1.096865          1.691254
  16         O                -1.075346          1.694145
  17         O                -0.495693          1.812436
  18         O                -0.481349          1.879276
  19         O                -0.460883          2.102081
  20         O                -0.402864          1.912518
  21         O                -0.402177          1.920253
  22         O                -0.187254          0.658947
  23         O                -0.100811          0.666235
  24         O                -0.079999          0.790886
  25         V                -0.076734          0.878105
  26         V                -0.050210          0.688290
  27         V                 0.020581          0.860304
  28         V                 0.076962          0.560381
  29         V                 0.088549          0.622483
  30         V                 0.212658          1.324219
  31         V                 0.230740          1.254227
  32         V                 0.349242          2.237529
  33         V                 0.628036          2.670075
  34         V                 0.717232          2.725117
  35         V                 0.738712          2.827180
  36         V                 0.888177          2.889109
  37         V                 1.055162          2.530042
  38         V                 1.178989          2.669235
  39         V                 1.248376          2.956894
  40         V                 1.424658          3.020284
  41         V                 1.477702          3.518833
  42         V                 1.550596          3.383080
 Total kinetic energy from orbitals= 5.115010147062D+02
 No NMR shielding tensors so no spin-rotation constants.
 Leave Link  601 at Thu May 17 17:07:56 2018, MaxMem=   104857600 cpu:               0.1 elap:               0.1
 (Enter /usr/remote/gaussian/g16/l9999.exe)

 This type of calculation cannot be archived.


 ... SUBJECTS WHICH DISCLOSE THEIR FULL POWER, MEANING AND BEAUTY AS SOON
 AS THEY ARE PRESENTED TO THE MIND HAVE VERY LITTLE OF THOSE QUALITIES
 TO DISCLOSE.
                           -- CHARLES DUTTON (1882)
 Job cpu time:       0 days  0 hours  0 minutes  1.2 seconds.
 Elapsed time:       0 days  0 hours  0 minutes  1.2 seconds.
 File lengths (MBytes):  RWF=      6 Int=      0 D2E=      0 Chk=      1 Scr=      1
 Normal termination of Gaussian 16 at Thu May 17 17:07:56 2018.
