[Molden Format]
[Title]
                                                                                
[Atoms] AU
 h     1    1 0.00000000000000E+00 0.00000000000000E+00 0.42083293910820E-01
 f     2    9 0.00000000000000E+00 0.00000000000000E+00 0.18476428389748E+01
[GTO]
    1 0
 s    3 1.00
 0.34252510000000E+01 0.15432897017315E+00
 0.62391374000000E+00 0.53532814060062E+00
 0.16885541000000E+00 0.44463454049886E+00
 
    2 0
 s    3 1.00
 0.16667913000000E+03 0.15432897010546E+00
 0.30360812000000E+02 0.53532814036580E+00
 0.82168207000000E+01 0.44463454030383E+00
 s    3 1.00
 0.64648032000000E+01 -.99967228213274E-01
 0.15022812000000E+01 0.39951282685590E+00
 0.48858849000000E+00 0.70011546449021E+00
 p    3 1.00
 0.64648032000000E+01 0.15591627926554E+00
 0.15022812000000E+01 0.60768371713744E+00
 0.48858849000000E+00 0.39195738815364E+00
 
[MO]
 Sym=     1a   
 Ene= -.26157521906876E+02
 Spin= Alpha
 Occup= 1.000000
     1 -.55041130767912E-02
     2 0.99456394492623E+00
     3 0.23000145634528E-01
     4 0.17628163417228E-15
     5 0.10550206659426E-15
     6 -.21084535000221E-02
 Sym=     1a   
 Ene= -.26107825831723E+02
 Spin= Beta
 Occup= 1.000000
     1 -.47556895555994E-02
     2 0.99514081001976E+00
     3 0.20605943292139E-01
     4 -.26690564377880E-17
     5 0.32803754157160E-15
     6 -.18143533131197E-02
 Sym=     2a   
 Ene= -.16943793583046E+01
 Spin= Alpha
 Occup= 1.000000
     1 0.61738608259972E-01
     2 -.25935310554838E+00
     3 0.99547036439867E+00
     4 -.18694368416881E-15
     5 -.11240607834650E-14
     6 -.82582976152067E-01
 Sym=     2a   
 Ene= -.14375847628484E+01
 Spin= Beta
 Occup= 1.000000
     1 0.94243699302134E-01
     2 -.25593832338840E+00
     3 0.98355422193786E+00
     4 0.15183695202430E-14
     5 -.21568171202543E-15
     6 -.20556413768621E-01
 Sym=     3a   
 Ene= -.80796169344457E+00
 Spin= Alpha
 Occup= 1.000000
     1 -.34912361780248E+00
     2 -.51906137271028E-01
     3 0.27009629653263E+00
     4 0.12748935103280E-13
     5 0.36694986812196E-14
     6 0.83204711007020E+00
 Sym=     4a   
 Ene= -.76071767114422E+00
 Spin= Alpha
 Occup= 1.000000
     1 0.50852564384056E-14
     2 0.63176115701651E-15
     3 -.34562534031922E-14
     4 0.99547044204554E+00
     5 0.95071546814235E-01
     6 -.10601817136378E-13
 Sym=     5a   
 Ene= -.65317693125258E+00
 Spin= Alpha
 Occup= 1.000000
     1 0.80570614596146E-15
     2 -.13041764704307E-15
     3 0.50661068926895E-15
     4 -.95071546814236E-01
     5 0.99547044204554E+00
     6 -.16587671006888E-14
 Sym=     3a   
 Ene= -.62947104374351E+00
 Spin= Beta
 Occup= 1.000000
     1 -.31993413612710E+00
     2 -.38587351479941E-01
     3 0.21378026674606E+00
     4 -.58000083137203E-14
     5 0.24081158643890E-13
     6 0.85316831819468E+00
 Sym=     4a   
 Ene= -.57567934011352E+00
 Spin= Beta
 Occup= 1.000000
     1 0.80473149015317E-14
     2 0.78253106466385E-15
     3 -.49366948011794E-14
     4 -.95071546814227E-01
     5 0.99547044204554E+00
     6 -.20912435587701E-13
 Sym=     6a   
 Ene= -.21290921342793E-01
 Spin= Alpha
 Occup= 1.000000
     1 0.11372801229650E+01
     2 0.76553493451469E-01
     3 -.51695640444468E+00
     4 -.44580083465852E-15
     5 -.11852250125847E-15
     6 0.67886349963707E+00
 Sym=     5a   
 Ene= 0.26052317885063E+00
 Spin= Beta
 Occup= 0.000000
     1 0.60222487450229E-16
     2 0.26399744948928E-15
     3 -.10707313972437E-14
     4 0.99547044204554E+00
     5 0.95071546814227E-01
     6 0.36621494620830E-14
 Sym=     6a   
 Ene= 0.71853006006843E+00
 Spin= Beta
 Occup= 0.000000
     1 0.11436227466733E+01
     2 0.87621444355542E-01
     3 -.56407505861497E+00
     4 -.10875096953375E-14
     5 -.23495374220794E-15
     6 0.65700867638552E+00
