3
Energy = -76.36358218353
O     0.0000000   -0.1497969    0.0000000 
H     0.7586592    0.4627400    0.0000000 
H    -0.7586592    0.4627400    0.0000000 
