3
Energy = -76.36357867644
O    -0.0000000   -0.1497261    0.0000000 
H     0.7587294    0.4627046    0.0000000 
H    -0.7587294    0.4627046    0.0000000 
