5
Energy = -40.48378176383
C    -0.0000000    0.0000000   -0.0000000 
H     0.6385936    0.6385936    0.6385936 
H    -0.6385936    0.6385936   -0.6385936 
H    -0.6385936   -0.6385936    0.6385936 
H     0.6385936   -0.6385936   -0.6385936 
