 Entering Gaussian System, Link 0=g16
 Input=04_doublemol.gjf
 Output=04_doublemol.log
 Initial command:
 /usr/remote/gaussian/g16/l1.exe "/tmp/Gau-9557.inp" -scrdir="/tmp/"
 Entering Link 1 = /usr/remote/gaussian/g16/l1.exe PID=      9558.
  
 Copyright (c) 1988,1990,1992,1993,1995,1998,2003,2009,2016,
            Gaussian, Inc.  All Rights Reserved.
  
 This is part of the Gaussian(R) 16 program.  It is based on
 the Gaussian(R) 09 system (copyright 2009, Gaussian, Inc.),
 the Gaussian(R) 03 system (copyright 2003, Gaussian, Inc.),
 the Gaussian(R) 98 system (copyright 1998, Gaussian, Inc.),
 the Gaussian(R) 94 system (copyright 1995, Gaussian, Inc.),
 the Gaussian 92(TM) system (copyright 1992, Gaussian, Inc.),
 the Gaussian 90(TM) system (copyright 1990, Gaussian, Inc.),
 the Gaussian 88(TM) system (copyright 1988, Gaussian, Inc.),
 the Gaussian 86(TM) system (copyright 1986, Carnegie Mellon
 University), and the Gaussian 82(TM) system (copyright 1983,
 Carnegie Mellon University). Gaussian is a federally registered
 trademark of Gaussian, Inc.
  
 This software contains proprietary and confidential information,
 including trade secrets, belonging to Gaussian, Inc.
  
 This software is provided under written license and may be
 used, copied, transmitted, or stored only in accord with that
 written license.
  
 The following legend is applicable only to US Government
 contracts under FAR:
  
                    RESTRICTED RIGHTS LEGEND
  
 Use, reproduction and disclosure by the US Government is
 subject to restrictions as set forth in subparagraphs (a)
 and (c) of the Commercial Computer Software - Restricted
 Rights clause in FAR 52.227-19.
  
 Gaussian, Inc.
 340 Quinnipiac St., Bldg. 40, Wallingford CT 06492
  
  
 ---------------------------------------------------------------
 Warning -- This program may not be used in any manner that
 competes with the business of Gaussian, Inc. or will provide
 assistance to any competitor of Gaussian, Inc.  The licensee
 of this program is prohibited from giving any competitor of
 Gaussian, Inc. access to this program.  By using this program,
 the user acknowledges that Gaussian, Inc. is engaged in the
 business of creating and licensing software in the field of
 computational chemistry and represents and warrants to the
 licensee that it is not a competitor of Gaussian, Inc. and that
 it will not use this program in any manner prohibited above.
 ---------------------------------------------------------------
  

 Cite this work as:
 Gaussian 16, Revision A.03,
 M. J. Frisch, G. W. Trucks, H. B. Schlegel, G. E. Scuseria, 
 M. A. Robb, J. R. Cheeseman, G. Scalmani, V. Barone, 
 G. A. Petersson, H. Nakatsuji, X. Li, M. Caricato, A. V. Marenich, 
 J. Bloino, B. G. Janesko, R. Gomperts, B. Mennucci, H. P. Hratchian, 
 J. V. Ortiz, A. F. Izmaylov, J. L. Sonnenberg, D. Williams-Young, 
 F. Ding, F. Lipparini, F. Egidi, J. Goings, B. Peng, A. Petrone, 
 T. Henderson, D. Ranasinghe, V. G. Zakrzewski, J. Gao, N. Rega, 
 G. Zheng, W. Liang, M. Hada, M. Ehara, K. Toyota, R. Fukuda, 
 J. Hasegawa, M. Ishida, T. Nakajima, Y. Honda, O. Kitao, H. Nakai, 
 T. Vreven, K. Throssell, J. A. Montgomery, Jr., J. E. Peralta, 
 F. Ogliaro, M. J. Bearpark, J. J. Heyd, E. N. Brothers, K. N. Kudin, 
 V. N. Staroverov, T. A. Keith, R. Kobayashi, J. Normand, 
 K. Raghavachari, A. P. Rendell, J. C. Burant, S. S. Iyengar, 
 J. Tomasi, M. Cossi, J. M. Millam, M. Klene, C. Adamo, R. Cammi, 
 J. W. Ochterski, R. L. Martin, K. Morokuma, O. Farkas, 
 J. B. Foresman, and D. J. Fox, Gaussian, Inc., Wallingford CT, 2016.
 
 ******************************************
 Gaussian 16:  ES64L-G16RevA.03 25-Dec-2016
                17-May-2018 
 ******************************************
 %chk=04_doublemol.chk
 %rwf=04_doublemol.rwf
 -------------------------------------------------
 #P HF/STO-3G iop(3/33=1,2/12=3) guess=only nosymm
 -------------------------------------------------
 1/38=1,172=1/1;
 2/12=3,15=1,17=6,18=5,40=1/2;
 3/6=3,11=9,25=1,30=1,33=1,89=1/1,2;
 4//1;
 6/7=3,28=1/1;
 99/5=2/99;
 Leave Link    1 at Thu May 17 16:16:42 2018, MaxMem=           0 cpu:               0.0 elap:               0.0
 (Enter /usr/remote/gaussian/g16/l101.exe)
 -----
 title
 -----
 Symbolic Z-matrix:
 Charge =  0 Multiplicity = 1
 Li                    0.        0.        0. 
 F                     0.        0.        1.56 
 Li                    0.        0.        0. 
 F                     0.        0.        1.56 
 
 ITRead=  0  0  0  0
 MicOpt= -1 -1 -1 -1
 NAtoms=      4 NQM=        4 NQMF=       0 NMMI=      0 NMMIF=      0
                NMic=       0 NMicF=      0.
                    Isotopes and Nuclear Properties:
 (Nuclear quadrupole moments (NQMom) in fm**2, nuclear magnetic moments (NMagM)
  in nuclear magnetons)

  Atom         1           2           3           4
 IAtWgt=           7          19           7          19
 AtmWgt=   7.0160045  18.9984032   7.0160045  18.9984032
 NucSpn=           3           1           3           1
 AtZEff=  -0.0000000  -0.0000000  -0.0000000  -0.0000000
 NQMom=   -4.0100000   0.0000000  -4.0100000   0.0000000
 NMagM=    3.2564240   2.6288670   3.2564240   2.6288670
 AtZNuc=   3.0000000   9.0000000   3.0000000   9.0000000
 Leave Link  101 at Thu May 17 16:16:42 2018, MaxMem=   104857600 cpu:               0.2 elap:               0.2
 (Enter /usr/remote/gaussian/g16/l202.exe)
                          Input orientation:                          
 ---------------------------------------------------------------------
 Center     Atomic      Atomic             Coordinates (Angstroms)
 Number     Number       Type             X           Y           Z
 ---------------------------------------------------------------------
      1          3           0        0.000000    0.000000    0.000000
      2          9           0        0.000000    0.000000    1.560000
      3          3           0        0.000000    0.000000    0.000000
      4          9           0        0.000000    0.000000    1.560000
 ---------------------------------------------------------------------
                    Distance matrix (angstroms):
                    1          2          3          4
     1  Li   0.000000
     2  F    1.560000   0.000000
     3  Li   0.000000   1.560000   0.000000
     4  F    1.560000   0.000000   1.560000   0.000000
 Symmetry turned off by external request.
 Stoichiometry    F2Li2
 Framework group  C*V[C*(LiLiFF)]
 Deg. of freedom     3
 Full point group                 C*V     NOp   4
 Rotational constants (GHZ):           0.0000000          20.2649245          20.2649245
 Leave Link  202 at Thu May 17 16:16:42 2018, MaxMem=   104857600 cpu:               0.0 elap:               0.0
 (Enter /usr/remote/gaussian/g16/l301.exe)
 Standard basis: STO-3G (5D, 7F)
                         Coordinates in L301:                         
 ---------------------------------------------------------------------
 Center     Atomic      Atomic             Coordinates (Angstroms)
 Number     Number       Type             X           Y           Z
 ---------------------------------------------------------------------
      1          3           0        0.000000    0.000000    0.000000
      2          9           0        0.000000    0.000000    1.560000
      3          3           0        0.000000    0.000000    0.000000
      4          9           0        0.000000    0.000000    1.560000
 ---------------------------------------------------------------------
 FixB: optimizing general contractions.
 Ernie: Thresh=  0.10000D-02 Tol=  0.10000D-05 Strict=F.
 IA=     1 ShT= 0 ShC= 0 NL=   1 NS=   0.
 IA=     1 L=0 SC=0 ISt=    0 NBk=    0 NP=    0 IndPr=    0.
 IA=     1 ShT= 1 ShC= 0 NL=   1 NS=   0.
 IA=     1 L=1 SC=0 ISt=    0 NBk=    0 NP=    0 IndPr=    0.
 IA=     2 ShT= 0 ShC= 0 NL=   1 NS=   0.
 IA=     2 L=0 SC=0 ISt=    0 NBk=    0 NP=    0 IndPr=    0.
 IA=     2 ShT= 1 ShC= 0 NL=   1 NS=   0.
 IA=     2 L=1 SC=0 ISt=    0 NBk=    0 NP=    0 IndPr=    0.
 IA=     3 ShT= 0 ShC= 0 NL=   1 NS=   0.
 IA=     3 L=0 SC=0 ISt=    0 NBk=    0 NP=    0 IndPr=    0.
 IA=     3 ShT= 1 ShC= 0 NL=   1 NS=   0.
 IA=     3 L=1 SC=0 ISt=    0 NBk=    0 NP=    0 IndPr=    0.
 IA=     4 ShT= 0 ShC= 0 NL=   1 NS=   0.
 IA=     4 L=0 SC=0 ISt=    0 NBk=    0 NP=    0 IndPr=    0.
 IA=     4 ShT= 1 ShC= 0 NL=   1 NS=   0.
 IA=     4 L=1 SC=0 ISt=    0 NBk=    0 NP=    0 IndPr=    0.
 LdAtmC:  AtmChg=     3.000000     9.000000     3.000000     9.000000
 RepNN0:  I=     3 J=     1 R= 0.00D+00
 RepNN0:  I=     4 J=     2 R= 0.00D+00
 AtZEff=     -1.3500000     -6.7500000     -1.3500000     -6.7500000
    20 basis functions,    60 primitive gaussians,    20 cartesian basis functions
    12 alpha electrons       12 beta electrons
       nuclear repulsion energy                  Inf Hartrees.
 IS=     1 IAt=     1 ISR=     1 T=0 IP=      1 IndIP=      1 IndIPD=      0 C=  8.848563D-01  0.000000D+00                             NZ=T
 IS=     1 IAt=     1 ISR=     1 T=0 IP=      2 IndIP=      2 IndIPD=      1 C=  8.557945D-01  0.000000D+00                             NZ=T
 IS=     1 IAt=     1 ISR=     1 T=0 IP=      3 IndIP=      3 IndIPD=      2 C=  2.667138D-01  0.000000D+00                             NZ=T
 IS=     2 IAt=     1 ISR=     2 T=1 IP=      1 IndIP=      4 IndIPD=      0 C= -5.075852D-02  1.262991D-01                             NZ=T
 IS=     2 IAt=     1 ISR=     2 T=1 IP=      2 IndIP=      5 IndIPD=      1 C=  6.789362D-02  7.942025D-02                             NZ=T
 IS=     2 IAt=     1 ISR=     2 T=1 IP=      3 IndIP=      6 IndIPD=      2 C=  5.124033D-02  1.258150D-02                             NZ=T
 IS=     3 IAt=     2 ISR=     1 T=0 IP=      1 IndIP=      7 IndIPD=      0 C=  5.102329D+00  0.000000D+00                             NZ=T
 IS=     3 IAt=     2 ISR=     1 T=0 IP=      2 IndIP=      8 IndIPD=      1 C=  4.934751D+00  0.000000D+00                             NZ=T
 IS=     3 IAt=     2 ISR=     1 T=0 IP=      3 IndIP=      9 IndIPD=      2 C=  1.537946D+00  0.000000D+00                             NZ=T
 IS=     4 IAt=     2 ISR=     2 T=1 IP=      1 IndIP=     10 IndIPD=      0 C= -2.888579D-01  2.291003D+00                             NZ=T
 IS=     4 IAt=     2 ISR=     2 T=1 IP=      2 IndIP=     11 IndIPD=      1 C=  3.863708D-01  1.440644D+00                             NZ=T
 IS=     4 IAt=     2 ISR=     2 T=1 IP=      3 IndIP=     12 IndIPD=      2 C=  2.915998D-01  2.282223D-01                             NZ=T
 IS=     5 IAt=     3 ISR=     1 T=0 IP=      1 IndIP=     13 IndIPD=      0 C=  8.848563D-01  0.000000D+00                             NZ=T
 IS=     5 IAt=     3 ISR=     1 T=0 IP=      2 IndIP=     14 IndIPD=      1 C=  8.557945D-01  0.000000D+00                             NZ=T
 IS=     5 IAt=     3 ISR=     1 T=0 IP=      3 IndIP=     15 IndIPD=      2 C=  2.667138D-01  0.000000D+00                             NZ=T
 IS=     6 IAt=     3 ISR=     2 T=1 IP=      1 IndIP=     16 IndIPD=      0 C= -5.075852D-02  1.262991D-01                             NZ=T
 IS=     6 IAt=     3 ISR=     2 T=1 IP=      2 IndIP=     17 IndIPD=      1 C=  6.789362D-02  7.942025D-02                             NZ=T
 IS=     6 IAt=     3 ISR=     2 T=1 IP=      3 IndIP=     18 IndIPD=      2 C=  5.124033D-02  1.258150D-02                             NZ=T
 IS=     7 IAt=     4 ISR=     1 T=0 IP=      1 IndIP=     19 IndIPD=      0 C=  5.102329D+00  0.000000D+00                             NZ=T
 IS=     7 IAt=     4 ISR=     1 T=0 IP=      2 IndIP=     20 IndIPD=      1 C=  4.934751D+00  0.000000D+00                             NZ=T
 IS=     7 IAt=     4 ISR=     1 T=0 IP=      3 IndIP=     21 IndIPD=      2 C=  1.537946D+00  0.000000D+00                             NZ=T
 IS=     8 IAt=     4 ISR=     2 T=1 IP=      1 IndIP=     22 IndIPD=      0 C= -2.888579D-01  2.291003D+00                             NZ=T
 IS=     8 IAt=     4 ISR=     2 T=1 IP=      2 IndIP=     23 IndIPD=      1 C=  3.863708D-01  1.440644D+00                             NZ=T
 IS=     8 IAt=     4 ISR=     2 T=1 IP=      3 IndIP=     24 IndIPD=      2 C=  2.915998D-01  2.282223D-01                             NZ=T
 IExCor=    0 DFT=F Ex=HF Corr=None ExCW=0 ScaHFX=  1.000000
 ScaDFX=  1.000000  1.000000  1.000000  1.000000 ScalE2=  1.000000  1.000000
 IRadAn=      5 IRanWt=     -1 IRanGd=            0 ICorTp=0 IEmpDi=  4
 NAtoms=    4 NActive=    4 NUniq=    4 SFac= 1.00D+00 NAtFMM=   60 NAOKFM=F Big=F
 Integral buffers will be    131072 words long.
 Raffenetti 1 integral format.
 Two-electron integral symmetry is turned off.
 Leave Link  301 at Thu May 17 16:16:42 2018, MaxMem=   104857600 cpu:               0.0 elap:               0.0
 (Enter /usr/remote/gaussian/g16/l302.exe)
 NPDir=0 NMtPBC=     1 NCelOv=     1 NCel=       1 NClECP=     1 NCelD=      1
         NCelK=      1 NCelE2=     1 NClLst=     1 CellRange=     0.0.
 One-electron integrals computed using PRISM.
 Entering OneElI...
 Calculate overlap and kinetic energy integrals
    NBasis =  20  MinDer = 0  MaxDer = 0
 Requested accuracy = 0.1000D-12
 PrmmSu-InSpLW:  IPartL=    0 NPrtUS=    1 NPrtUL=    1 DoSpLW=F IThBeg=    0 IThEnd=    0 NThAct=    1.
 PrsmSu:  NPrtUS=   1 ThrOK=F IAlg=1 NPAlg=1 LenDen=           0 ISkipM=0 DoSpLW=F IThBeg=    0 IThEnd=    0.
 Prism:   IPart=     0 DynPar=F LinDyn=F Incr=           1.
 PRISM was handed   104850421 working-precision words and    36 shell-pairs
 IPart=  0 NShTot=          36 NBatch=           4 AvBLen=         9.0
 PrSmSu:  NxtVal=              2.
 *** Overlap *** 
                1             2             3             4             5 
      1  0.100000D+01
      2  0.241137D+00  0.100000D+01
      3  0.000000D+00  0.000000D+00  0.100000D+01
      4  0.000000D+00  0.000000D+00  0.000000D+00  0.100000D+01
      5  0.000000D+00  0.000000D+00  0.000000D+00  0.000000D+00  0.100000D+01
      6  0.209491D-03  0.281623D-01  0.000000D+00  0.000000D+00  0.485049D-01
      7  0.293733D-01  0.273045D+00  0.000000D+00  0.000000D+00  0.418451D+00
      8  0.000000D+00  0.000000D+00  0.132430D+00  0.000000D+00  0.000000D+00
      9  0.000000D+00  0.000000D+00  0.000000D+00  0.132430D+00  0.000000D+00
     10 -0.500748D-01 -0.983078D-01  0.000000D+00  0.000000D+00 -0.119546D+00
     11  0.100000D+01  0.241137D+00  0.000000D+00  0.000000D+00  0.000000D+00
     12  0.241137D+00  0.100000D+01  0.000000D+00  0.000000D+00  0.000000D+00
     13  0.000000D+00  0.000000D+00  0.100000D+01  0.000000D+00  0.000000D+00
     14  0.000000D+00  0.000000D+00  0.000000D+00  0.100000D+01  0.000000D+00
     15  0.000000D+00  0.000000D+00  0.000000D+00  0.000000D+00  0.100000D+01
     16  0.209491D-03  0.281623D-01  0.000000D+00  0.000000D+00  0.485049D-01
     17  0.293733D-01  0.273045D+00  0.000000D+00  0.000000D+00  0.418451D+00
     18  0.000000D+00  0.000000D+00  0.132430D+00  0.000000D+00  0.000000D+00
     19  0.000000D+00  0.000000D+00  0.000000D+00  0.132430D+00  0.000000D+00
     20 -0.500748D-01 -0.983078D-01  0.000000D+00  0.000000D+00 -0.119546D+00
                6             7             8             9            10 
      6  0.100000D+01
      7  0.237990D+00  0.100000D+01
      8  0.000000D+00  0.000000D+00  0.100000D+01
      9  0.000000D+00  0.000000D+00  0.000000D+00  0.100000D+01
     10  0.000000D+00  0.000000D+00  0.000000D+00  0.000000D+00  0.100000D+01
     11  0.209491D-03  0.293733D-01  0.000000D+00  0.000000D+00 -0.500748D-01
     12  0.281623D-01  0.273045D+00  0.000000D+00  0.000000D+00 -0.983078D-01
     13  0.000000D+00  0.000000D+00  0.132430D+00  0.000000D+00  0.000000D+00
     14  0.000000D+00  0.000000D+00  0.000000D+00  0.132430D+00  0.000000D+00
     15  0.485049D-01  0.418451D+00  0.000000D+00  0.000000D+00 -0.119546D+00
     16  0.100000D+01  0.237990D+00  0.000000D+00  0.000000D+00  0.000000D+00
     17  0.237990D+00  0.100000D+01  0.000000D+00  0.000000D+00  0.000000D+00
     18  0.000000D+00  0.000000D+00  0.100000D+01  0.000000D+00  0.000000D+00
     19  0.000000D+00  0.000000D+00  0.000000D+00  0.100000D+01  0.000000D+00
     20  0.000000D+00  0.000000D+00  0.000000D+00  0.000000D+00  0.100000D+01
               11            12            13            14            15 
     11  0.100000D+01
     12  0.241137D+00  0.100000D+01
     13  0.000000D+00  0.000000D+00  0.100000D+01
     14  0.000000D+00  0.000000D+00  0.000000D+00  0.100000D+01
     15  0.000000D+00  0.000000D+00  0.000000D+00  0.000000D+00  0.100000D+01
     16  0.209491D-03  0.281623D-01  0.000000D+00  0.000000D+00  0.485049D-01
     17  0.293733D-01  0.273045D+00  0.000000D+00  0.000000D+00  0.418451D+00
     18  0.000000D+00  0.000000D+00  0.132430D+00  0.000000D+00  0.000000D+00
     19  0.000000D+00  0.000000D+00  0.000000D+00  0.132430D+00  0.000000D+00
     20 -0.500748D-01 -0.983078D-01  0.000000D+00  0.000000D+00 -0.119546D+00
               16            17            18            19            20 
     16  0.100000D+01
     17  0.237990D+00  0.100000D+01
     18  0.000000D+00  0.000000D+00  0.100000D+01
     19  0.000000D+00  0.000000D+00  0.000000D+00  0.100000D+01
     20  0.000000D+00  0.000000D+00  0.000000D+00  0.000000D+00  0.100000D+01
 *** Kinetic Energy *** 
                1             2             3             4             5 
      1  0.357679D+01
      2 -0.202374D-01  0.102163D+00
      3  0.000000D+00  0.000000D+00  0.319682D+00
      4  0.000000D+00  0.000000D+00  0.000000D+00  0.319682D+00
      5  0.000000D+00  0.000000D+00  0.000000D+00  0.000000D+00  0.319682D+00
      6 -0.151979D-02  0.317870D-02  0.000000D+00  0.000000D+00  0.119300D-01
      7 -0.316968D-01  0.334721D-01  0.000000D+00  0.000000D+00  0.114970D+00
      8  0.000000D+00  0.000000D+00  0.359452D-01  0.000000D+00  0.000000D+00
      9  0.000000D+00  0.000000D+00  0.000000D+00  0.359452D-01  0.000000D+00
     10  0.325808D-01 -0.336334D-01  0.000000D+00  0.000000D+00 -0.922582D-01
     11  0.357679D+01 -0.202374D-01  0.000000D+00  0.000000D+00  0.000000D+00
     12 -0.202374D-01  0.102163D+00  0.000000D+00  0.000000D+00  0.000000D+00
     13  0.000000D+00  0.000000D+00  0.319682D+00  0.000000D+00  0.000000D+00
     14  0.000000D+00  0.000000D+00  0.000000D+00  0.319682D+00  0.000000D+00
     15  0.000000D+00  0.000000D+00  0.000000D+00  0.000000D+00  0.319682D+00
     16 -0.151979D-02  0.317870D-02  0.000000D+00  0.000000D+00  0.119300D-01
     17 -0.316968D-01  0.334721D-01  0.000000D+00  0.000000D+00  0.114970D+00
     18  0.000000D+00  0.000000D+00  0.359452D-01  0.000000D+00  0.000000D+00
     19  0.000000D+00  0.000000D+00  0.000000D+00  0.359452D-01  0.000000D+00
     20  0.325808D-01 -0.336334D-01  0.000000D+00  0.000000D+00 -0.922582D-01
                6             7             8             9            10 
      6  0.369846D+02
      7 -0.212857D+00  0.103800D+01
      8  0.000000D+00  0.000000D+00  0.324801D+01
      9  0.000000D+00  0.000000D+00  0.000000D+00  0.324801D+01
     10  0.000000D+00  0.000000D+00  0.000000D+00  0.000000D+00  0.324801D+01
     11 -0.151979D-02 -0.316968D-01  0.000000D+00  0.000000D+00  0.325808D-01
     12  0.317870D-02  0.334721D-01  0.000000D+00  0.000000D+00 -0.336334D-01
     13  0.000000D+00  0.000000D+00  0.359452D-01  0.000000D+00  0.000000D+00
     14  0.000000D+00  0.000000D+00  0.000000D+00  0.359452D-01  0.000000D+00
     15  0.119300D-01  0.114970D+00  0.000000D+00  0.000000D+00 -0.922582D-01
     16  0.369846D+02 -0.212857D+00  0.000000D+00  0.000000D+00  0.000000D+00
     17 -0.212857D+00  0.103800D+01  0.000000D+00  0.000000D+00  0.000000D+00
     18  0.000000D+00  0.000000D+00  0.324801D+01  0.000000D+00  0.000000D+00
     19  0.000000D+00  0.000000D+00  0.000000D+00  0.324801D+01  0.000000D+00
     20  0.000000D+00  0.000000D+00  0.000000D+00  0.000000D+00  0.324801D+01
               11            12            13            14            15 
     11  0.357679D+01
     12 -0.202374D-01  0.102163D+00
     13  0.000000D+00  0.000000D+00  0.319682D+00
     14  0.000000D+00  0.000000D+00  0.000000D+00  0.319682D+00
     15  0.000000D+00  0.000000D+00  0.000000D+00  0.000000D+00  0.319682D+00
     16 -0.151979D-02  0.317870D-02  0.000000D+00  0.000000D+00  0.119300D-01
     17 -0.316968D-01  0.334721D-01  0.000000D+00  0.000000D+00  0.114970D+00
     18  0.000000D+00  0.000000D+00  0.359452D-01  0.000000D+00  0.000000D+00
     19  0.000000D+00  0.000000D+00  0.000000D+00  0.359452D-01  0.000000D+00
     20  0.325808D-01 -0.336334D-01  0.000000D+00  0.000000D+00 -0.922582D-01
               16            17            18            19            20 
     16  0.369846D+02
     17 -0.212857D+00  0.103800D+01
     18  0.000000D+00  0.000000D+00  0.324801D+01
     19  0.000000D+00  0.000000D+00  0.000000D+00  0.324801D+01
     20  0.000000D+00  0.000000D+00  0.000000D+00  0.000000D+00  0.324801D+01
 Entering OneElI...
 Calculate potential energy integrals
    NBasis =  20  MinDer = 0  MaxDer = 0
 Requested accuracy = 0.1000D-12
 PrmmSu-InSpLW:  IPartL=    0 NPrtUS=    1 NPrtUL=    1 DoSpLW=F IThBeg=    0 IThEnd=    0 NThAct=    1.
 PrsmSu:  NPrtUS=   1 ThrOK=F IAlg=1 NPAlg=1 LenDen=           0 ISkipM=0 DoSpLW=F IThBeg=    0 IThEnd=    0.
 Prism:   IPart=     0 DynPar=F LinDyn=F Incr=           1.
 PRISM was handed   104850402 working-precision words and    36 shell-pairs
 IPart=  0 NShTot=         144 NBatch=          36 AvBLen=         4.0
 PrSmSu:  NxtVal=              2.
 ***** Potential Energy ***** 
                1             2             3             4             5 
      1  0.220717D+02
      2  0.340093D+01  0.773331D+01
      3  0.000000D+00  0.000000D+00  0.711036D+01
      4  0.000000D+00  0.000000D+00  0.000000D+00  0.711036D+01
      5  0.304767D+00  0.223816D+01  0.000000D+00  0.000000D+00  0.890959D+01
      6  0.146545D-01  0.230196D+01  0.000000D+00  0.000000D+00  0.397562D+01
      7  0.464655D+00  0.509283D+01  0.000000D+00  0.000000D+00  0.812340D+01
      8  0.000000D+00  0.000000D+00  0.194590D+01  0.000000D+00  0.000000D+00
      9  0.000000D+00  0.000000D+00  0.000000D+00  0.194590D+01  0.000000D+00
     10 -0.797006D+00 -0.165529D+01  0.000000D+00  0.000000D+00 -0.219917D+01
     11  0.220717D+02  0.340093D+01  0.000000D+00  0.000000D+00  0.304767D+00
     12  0.340093D+01  0.773331D+01  0.000000D+00  0.000000D+00  0.223816D+01
     13  0.000000D+00  0.000000D+00  0.711036D+01  0.000000D+00  0.000000D+00
     14  0.000000D+00  0.000000D+00  0.000000D+00  0.711036D+01  0.000000D+00
     15  0.304767D+00  0.223816D+01  0.000000D+00  0.000000D+00  0.890959D+01
     16  0.146545D-01  0.230196D+01  0.000000D+00  0.000000D+00  0.397562D+01
     17  0.464655D+00  0.509283D+01  0.000000D+00  0.000000D+00  0.812340D+01
     18  0.000000D+00  0.000000D+00  0.194590D+01  0.000000D+00  0.000000D+00
     19  0.000000D+00  0.000000D+00  0.000000D+00  0.194590D+01  0.000000D+00
     20 -0.797006D+00 -0.165529D+01  0.000000D+00  0.000000D+00 -0.219917D+01
                6             7             8             9            10 
      6  0.156054D+03
      7  0.188380D+02  0.251177D+02
      8  0.000000D+00  0.000000D+00  0.248787D+02
      9  0.000000D+00  0.000000D+00  0.000000D+00  0.248787D+02
     10 -0.312162D-01 -0.390494D+00  0.000000D+00  0.000000D+00  0.250410D+02
     11  0.146545D-01  0.464655D+00  0.000000D+00  0.000000D+00 -0.797006D+00
     12  0.230196D+01  0.509283D+01  0.000000D+00  0.000000D+00 -0.165529D+01
     13  0.000000D+00  0.000000D+00  0.194590D+01  0.000000D+00  0.000000D+00
     14  0.000000D+00  0.000000D+00  0.000000D+00  0.194590D+01  0.000000D+00
     15  0.397562D+01  0.812340D+01  0.000000D+00  0.000000D+00 -0.219917D+01
     16  0.156054D+03  0.188380D+02  0.000000D+00  0.000000D+00 -0.312162D-01
     17  0.188380D+02  0.251177D+02  0.000000D+00  0.000000D+00 -0.390494D+00
     18  0.000000D+00  0.000000D+00  0.248787D+02  0.000000D+00  0.000000D+00
     19  0.000000D+00  0.000000D+00  0.000000D+00  0.248787D+02  0.000000D+00
     20 -0.312162D-01 -0.390494D+00  0.000000D+00  0.000000D+00  0.250410D+02
               11            12            13            14            15 
     11  0.220717D+02
     12  0.340093D+01  0.773331D+01
     13  0.000000D+00  0.000000D+00  0.711036D+01
     14  0.000000D+00  0.000000D+00  0.000000D+00  0.711036D+01
     15  0.304767D+00  0.223816D+01  0.000000D+00  0.000000D+00  0.890959D+01
     16  0.146545D-01  0.230196D+01  0.000000D+00  0.000000D+00  0.397562D+01
     17  0.464655D+00  0.509283D+01  0.000000D+00  0.000000D+00  0.812340D+01
     18  0.000000D+00  0.000000D+00  0.194590D+01  0.000000D+00  0.000000D+00
     19  0.000000D+00  0.000000D+00  0.000000D+00  0.194590D+01  0.000000D+00
     20 -0.797006D+00 -0.165529D+01  0.000000D+00  0.000000D+00 -0.219917D+01
               16            17            18            19            20 
     16  0.156054D+03
     17  0.188380D+02  0.251177D+02
     18  0.000000D+00  0.000000D+00  0.248787D+02
     19  0.000000D+00  0.000000D+00  0.000000D+00  0.248787D+02
     20 -0.312162D-01 -0.390494D+00  0.000000D+00  0.000000D+00  0.250410D+02
 ****** Core Hamiltonian ****** 
                1             2             3             4             5 
      1 -0.184949D+02
      2 -0.342116D+01 -0.763114D+01
      3  0.000000D+00  0.000000D+00 -0.679068D+01
      4  0.000000D+00  0.000000D+00  0.000000D+00 -0.679068D+01
      5 -0.304767D+00 -0.223816D+01  0.000000D+00  0.000000D+00 -0.858991D+01
      6 -0.161743D-01 -0.229878D+01  0.000000D+00  0.000000D+00 -0.396369D+01
      7 -0.496352D+00 -0.505936D+01  0.000000D+00  0.000000D+00 -0.800843D+01
      8  0.000000D+00  0.000000D+00 -0.190995D+01  0.000000D+00  0.000000D+00
      9  0.000000D+00  0.000000D+00  0.000000D+00 -0.190995D+01  0.000000D+00
     10  0.829587D+00  0.162166D+01  0.000000D+00  0.000000D+00  0.210691D+01
     11 -0.184949D+02 -0.342116D+01  0.000000D+00  0.000000D+00 -0.304767D+00
     12 -0.342116D+01 -0.763114D+01  0.000000D+00  0.000000D+00 -0.223816D+01
     13  0.000000D+00  0.000000D+00 -0.679068D+01  0.000000D+00  0.000000D+00
     14  0.000000D+00  0.000000D+00  0.000000D+00 -0.679068D+01  0.000000D+00
     15 -0.304767D+00 -0.223816D+01  0.000000D+00  0.000000D+00 -0.858991D+01
     16 -0.161743D-01 -0.229878D+01  0.000000D+00  0.000000D+00 -0.396369D+01
     17 -0.496352D+00 -0.505936D+01  0.000000D+00  0.000000D+00 -0.800843D+01
     18  0.000000D+00  0.000000D+00 -0.190995D+01  0.000000D+00  0.000000D+00
     19  0.000000D+00  0.000000D+00  0.000000D+00 -0.190995D+01  0.000000D+00
     20  0.829587D+00  0.162166D+01  0.000000D+00  0.000000D+00  0.210691D+01
                6             7             8             9            10 
      6 -0.119070D+03
      7 -0.190509D+02 -0.240797D+02
      8  0.000000D+00  0.000000D+00 -0.216307D+02
      9  0.000000D+00  0.000000D+00  0.000000D+00 -0.216307D+02
     10  0.312162D-01  0.390494D+00  0.000000D+00  0.000000D+00 -0.217930D+02
     11 -0.161743D-01 -0.496352D+00  0.000000D+00  0.000000D+00  0.829587D+00
     12 -0.229878D+01 -0.505936D+01  0.000000D+00  0.000000D+00  0.162166D+01
     13  0.000000D+00  0.000000D+00 -0.190995D+01  0.000000D+00  0.000000D+00
     14  0.000000D+00  0.000000D+00  0.000000D+00 -0.190995D+01  0.000000D+00
     15 -0.396369D+01 -0.800843D+01  0.000000D+00  0.000000D+00  0.210691D+01
     16 -0.119070D+03 -0.190509D+02  0.000000D+00  0.000000D+00  0.312162D-01
     17 -0.190509D+02 -0.240797D+02  0.000000D+00  0.000000D+00  0.390494D+00
     18  0.000000D+00  0.000000D+00 -0.216307D+02  0.000000D+00  0.000000D+00
     19  0.000000D+00  0.000000D+00  0.000000D+00 -0.216307D+02  0.000000D+00
     20  0.312162D-01  0.390494D+00  0.000000D+00  0.000000D+00 -0.217930D+02
               11            12            13            14            15 
     11 -0.184949D+02
     12 -0.342116D+01 -0.763114D+01
     13  0.000000D+00  0.000000D+00 -0.679068D+01
     14  0.000000D+00  0.000000D+00  0.000000D+00 -0.679068D+01
     15 -0.304767D+00 -0.223816D+01  0.000000D+00  0.000000D+00 -0.858991D+01
     16 -0.161743D-01 -0.229878D+01  0.000000D+00  0.000000D+00 -0.396369D+01
     17 -0.496352D+00 -0.505936D+01  0.000000D+00  0.000000D+00 -0.800843D+01
     18  0.000000D+00  0.000000D+00 -0.190995D+01  0.000000D+00  0.000000D+00
     19  0.000000D+00  0.000000D+00  0.000000D+00 -0.190995D+01  0.000000D+00
     20  0.829587D+00  0.162166D+01  0.000000D+00  0.000000D+00  0.210691D+01
               16            17            18            19            20 
     16 -0.119070D+03
     17 -0.190509D+02 -0.240797D+02
     18  0.000000D+00  0.000000D+00 -0.216307D+02
     19  0.000000D+00  0.000000D+00  0.000000D+00 -0.216307D+02
     20  0.312162D-01  0.390494D+00  0.000000D+00  0.000000D+00 -0.217930D+02
 SVDSVc IOpt=   1 NormSV=T IR=1
 SVDSVc V= 3.23D+00 2.42D+00 2.26D+00 2.26D+00 2.06D+00 1.83D+00 1.74D+00 1.74D+00 1.57D+00 8.82D-01
 SVDSVc V= 6.01D-16 2.82D-16 2.49D-16 1.86D-16 1.55D-16 1.36D-16 8.82D-17 6.83D-17 3.11D-17 3.54D-18
 TstOVc:  Largest diagonal error= 2.89D-15 IB=1 I=    1.
 TstOVc:  Largest same sym error= 3.86D-15 IB=1 I=    9 J=    4.
 Orthogonalized basis functions: 
                 1             2             3             4             5 
      1   0.806400D-01  0.296249D+00  0.000000D+00  0.000000D+00  0.610514D-01
      2   0.160689D+00  0.247448D+00  0.000000D+00  0.000000D+00  0.765559D-01
      3   0.000000D+00  0.000000D+00  0.837705D-02  0.332132D+00  0.000000D+00
      4   0.000000D+00  0.000000D+00  0.332132D+00 -0.837705D-02  0.000000D+00
      5   0.195468D+00 -0.164813D+00  0.000000D+00  0.000000D+00 -0.187636D+00
      6   0.120783D+00 -0.113909D+00  0.000000D+00  0.000000D+00  0.242980D+00
      7   0.254153D+00 -0.953689D-01  0.000000D+00  0.000000D+00  0.621149D-01
      8   0.000000D+00  0.000000D+00  0.837705D-02  0.332132D+00  0.000000D+00
      9   0.000000D+00  0.000000D+00  0.332132D+00 -0.837705D-02  0.000000D+00
     10  -0.700334D-01 -0.936774D-01  0.000000D+00  0.000000D+00  0.366719D+00
     11   0.806400D-01  0.296249D+00  0.000000D+00  0.000000D+00  0.610514D-01
     12   0.160689D+00  0.247448D+00  0.000000D+00  0.000000D+00  0.765559D-01
     13   0.000000D+00  0.000000D+00  0.837705D-02  0.332132D+00  0.000000D+00
     14   0.000000D+00  0.000000D+00  0.332132D+00 -0.837705D-02  0.000000D+00
     15   0.195468D+00 -0.164813D+00  0.000000D+00  0.000000D+00 -0.187636D+00
     16   0.120783D+00 -0.113909D+00  0.000000D+00  0.000000D+00  0.242980D+00
     17   0.254153D+00 -0.953689D-01  0.000000D+00  0.000000D+00  0.621149D-01
     18   0.000000D+00  0.000000D+00  0.837705D-02  0.332132D+00  0.000000D+00
     19   0.000000D+00  0.000000D+00  0.332132D+00 -0.837705D-02  0.000000D+00
     20  -0.700334D-01 -0.936774D-01  0.000000D+00  0.000000D+00  0.366719D+00
                 6             7             8             9            10 
      1  -0.462892D-01  0.000000D+00  0.000000D+00  0.396632D+00  0.929230D-01
      2  -0.352159D-01  0.000000D+00  0.000000D+00 -0.330791D+00 -0.304787D+00
      3   0.000000D+00  0.379168D+00  0.176781D-01  0.000000D+00  0.000000D+00
      4   0.000000D+00 -0.176781D-01  0.379168D+00  0.000000D+00  0.000000D+00
      5  -0.167621D+00  0.000000D+00  0.000000D+00  0.174385D+00 -0.396833D+00
      6   0.375183D+00  0.000000D+00  0.000000D+00  0.103996D+00 -0.168445D+00
      7  -0.959384D-01  0.000000D+00  0.000000D+00 -0.896282D-01  0.512623D+00
      8   0.000000D+00 -0.379168D+00 -0.176781D-01  0.000000D+00  0.000000D+00
      9   0.000000D+00  0.176781D-01 -0.379168D+00  0.000000D+00  0.000000D+00
     10  -0.303045D+00  0.000000D+00  0.000000D+00  0.385261D-01 -0.130107D+00
     11  -0.462892D-01  0.000000D+00  0.000000D+00  0.396632D+00  0.929230D-01
     12  -0.352159D-01  0.000000D+00  0.000000D+00 -0.330791D+00 -0.304787D+00
     13   0.000000D+00  0.379168D+00  0.176781D-01  0.000000D+00  0.000000D+00
     14   0.000000D+00 -0.176781D-01  0.379168D+00  0.000000D+00  0.000000D+00
     15  -0.167621D+00  0.000000D+00  0.000000D+00  0.174385D+00 -0.396833D+00
     16   0.375183D+00  0.000000D+00  0.000000D+00  0.103996D+00 -0.168445D+00
     17  -0.959384D-01  0.000000D+00  0.000000D+00 -0.896282D-01  0.512623D+00
     18   0.000000D+00 -0.379168D+00 -0.176781D-01  0.000000D+00  0.000000D+00
     19   0.000000D+00  0.176781D-01 -0.379168D+00  0.000000D+00  0.000000D+00
     20  -0.303045D+00  0.000000D+00  0.000000D+00  0.385261D-01 -0.130107D+00
 NBasis=    20 RedAO= T EigKep=  8.82D-01  NBF=    20
 NBsUse=    10 1.00D-06 EigRej=  6.01D-16 NBFU=    10
 Leave Link  302 at Thu May 17 16:16:42 2018, MaxMem=   104857600 cpu:               0.0 elap:               0.0
 (Enter /usr/remote/gaussian/g16/l401.exe)
 ExpMin= 4.81D-02 ExpMax= 1.67D+02 ExpMxC= 1.67D+02 IAcc=3 IRadAn=         5 AccDes= 0.00D+00
 Harris functional with IExCor=  205 and IRadAn=       5 diagonalized for initial guess.
 HarFok:  IExCor=  205 AccDes= 0.00D+00 IRadAn=         5 IDoV= 1 UseB2=F ITyADJ=14
 ICtDFT=  3500011 ScaDFX=  1.000000  1.000000  1.000000  1.000000
 FoFCou: FMM=F IPFlag=           0 FMFlag=      100000 FMFlg1=           0
         NFxFlg=           0 DoJE=T BraDBF=F KetDBF=T FulRan=T
         wScrn=  0.000000 ICntrl=       500 IOpCl=  0 I1Cent=   200000004 NGrid=           0
         NMat0=    1 NMatS0=      1 NMatT0=    0 NMatD0=    1 NMtDS0=    0 NMtDT0=    0
 Symmetry not used in FoFCou.
 Harris En=                   Inf
 JPrj=0 DoOrth=F DoCkMO=F.
 Leave Link  401 at Thu May 17 16:16:42 2018, MaxMem=   104857600 cpu:               0.2 elap:               0.2
 (Enter /usr/remote/gaussian/g16/l601.exe)
 Copying SCF densities to generalized density rwf, IOpCl= 0 IROHF=0.

 **********************************************************************

            Population analysis using the SCF density.

 **********************************************************************

 Alpha  occ. eigenvalues --  -82.96327  -6.47542  -4.37708  -3.35558  -3.31895
 Alpha  occ. eigenvalues --   -3.31895  -0.34970  -0.23156  -0.22871  -0.22871
 Alpha  occ. eigenvalues --    0.02710   0.00000
     Molecular Orbital Coefficients:
                           1         2         3         4         5
                           O         O         O         O         O
     Eigenvalues --   -82.96327  -6.47542  -4.37708  -3.35558  -3.31895
   1 1   Li 1S         -0.00084   0.51076  -0.00110   0.00440  -0.00000
   2        2S          0.01139  -0.05573  -0.06969   0.01856  -0.00000
   3        2PX         0.00000   0.00000  -0.00000  -0.00000  -0.01108
   4        2PY         0.00000  -0.00000  -0.00000   0.00000  -0.03368
   5        2PZ         0.01594  -0.00229  -0.09638   0.02252   0.00000
   6 2   F  1S          0.51089  -0.00038  -0.07332  -0.00992   0.00000
   7        2S         -0.06242   0.00968   0.55717   0.06416  -0.00000
   8        2PX         0.00000   0.00000  -0.00000   0.00000   0.15738
   9        2PY        -0.00000   0.00000   0.00000   0.00000   0.47823
  10        2PZ         0.00305   0.01178  -0.08910   0.49805  -0.00000
  11 3   Li 1S         -0.00084   0.51076  -0.00110   0.00440  -0.00000
  12        2S          0.01139  -0.05573  -0.06969   0.01856  -0.00000
  13        2PX         0.00000   0.00000  -0.00000  -0.00000  -0.01108
  14        2PY        -0.00000  -0.00000  -0.00000  -0.00000  -0.03368
  15        2PZ         0.01594  -0.00229  -0.09638   0.02252   0.00000
  16 4   F  1S          0.51089  -0.00038  -0.07332  -0.00992   0.00000
  17        2S         -0.06242   0.00968   0.55717   0.06416  -0.00000
  18        2PX         0.00000   0.00000  -0.00000   0.00000   0.15738
  19        2PY        -0.00000   0.00000   0.00000   0.00000   0.47823
  20        2PZ         0.00305   0.01178  -0.08910   0.49805  -0.00000
                           6         7         8         9        10
                           O         O         O         O         O
     Eigenvalues --    -3.31895  -0.34970  -0.23156  -0.22871  -0.22871
   1 1   Li 1S         -0.00000  -0.07085   0.01313   0.00000   0.00000
   2        2S         -0.00000   0.53124  -0.07629  -0.00000  -0.00000
   3        2PX        -0.03368  -0.00000   0.00000  -0.31677   0.39098
   4        2PY         0.01108  -0.00000  -0.00000   0.39098   0.31677
   5        2PZ        -0.00000   0.14811   0.53345   0.00000   0.00000
   6 2   F  1S          0.00000   0.00605   0.00562   0.00000   0.00000
   7        2S         -0.00000  -0.13767  -0.14166  -0.00000  -0.00000
   8        2PX         0.47823   0.00000  -0.00000   0.01983  -0.02447
   9        2PY        -0.15738  -0.00000   0.00000  -0.02447  -0.01983
  10        2PZ        -0.00000   0.03544   0.03189   0.00000   0.00000
  11 3   Li 1S         -0.00000  -0.07085   0.01313   0.00000   0.00000
  12        2S         -0.00000   0.53124  -0.07629  -0.00000  -0.00000
  13        2PX        -0.03368  -0.00000   0.00000  -0.31677   0.39098
  14        2PY         0.01108  -0.00000  -0.00000   0.39098   0.31677
  15        2PZ        -0.00000   0.14811   0.53345   0.00000   0.00000
  16 4   F  1S          0.00000   0.00605   0.00562   0.00000   0.00000
  17        2S         -0.00000  -0.13767  -0.14166  -0.00000  -0.00000
  18        2PX         0.47823   0.00000  -0.00000   0.01983  -0.02447
  19        2PY        -0.15738  -0.00000   0.00000  -0.02447  -0.01983
  20        2PZ        -0.00000   0.03544   0.03189   0.00000   0.00000
     Density Matrix:
                           1         2         3         4         5
   1 1   Li 1S          0.53218
   2        2S         -0.13391   0.59294
   3        2PX         0.00000  -0.00000   0.50893
   4        2PY        -0.00000  -0.00000  -0.00000   0.50893
   5        2PZ        -0.00894   0.09086   0.00000  -0.00000   0.63312
   6 2   F  1S         -0.00189   0.02710   0.00000   0.00000   0.03777
   7        2S          0.02512  -0.20244  -0.00000  -0.00000  -0.29847
   8        2PX         0.00000  -0.00000  -0.06740   0.00000   0.00000
   9        2PY         0.00000   0.00000  -0.00000  -0.06740   0.00000
  10        2PZ         0.01242   0.06245   0.00000   0.00000   0.08417
  11 3   Li 1S          0.53218  -0.13391   0.00000   0.00000  -0.00894
  12        2S         -0.13391   0.59294  -0.00000   0.00000   0.09086
  13        2PX         0.00000  -0.00000   0.50893   0.00000   0.00000
  14        2PY        -0.00000  -0.00000  -0.00000   0.50893  -0.00000
  15        2PZ        -0.00894   0.09086   0.00000  -0.00000   0.63312
  16 4   F  1S         -0.00189   0.02710   0.00000   0.00000   0.03777
  17        2S          0.02512  -0.20244  -0.00000  -0.00000  -0.29847
  18        2PX         0.00000  -0.00000  -0.06740   0.00000   0.00000
  19        2PY         0.00000   0.00000  -0.00000  -0.06740   0.00000
  20        2PZ         0.01242   0.06245   0.00000   0.00000   0.08417
                           6         7         8         9        10
   6 2   F  1S          0.53311
   7        2S         -0.15002   0.71513
   8        2PX         0.00000  -0.00000   0.50893
   9        2PY        -0.00000   0.00000   0.00000   0.50893
  10        2PZ         0.00708  -0.05432   0.00000  -0.00000   0.51682
  11 3   Li 1S         -0.00189   0.02512   0.00000  -0.00000   0.01242
  12        2S          0.02710  -0.20244  -0.00000   0.00000   0.06245
  13        2PX         0.00000  -0.00000  -0.06740  -0.00000   0.00000
  14        2PY        -0.00000  -0.00000   0.00000  -0.06740   0.00000
  15        2PZ         0.03777  -0.29847   0.00000   0.00000   0.08417
  16 4   F  1S          0.53311  -0.15002   0.00000   0.00000   0.00708
  17        2S         -0.15002   0.71513  -0.00000   0.00000  -0.05432
  18        2PX         0.00000  -0.00000   0.50893   0.00000   0.00000
  19        2PY        -0.00000   0.00000   0.00000   0.50893  -0.00000
  20        2PZ         0.00708  -0.05432   0.00000   0.00000   0.51682
                          11        12        13        14        15
  11 3   Li 1S          0.53218
  12        2S         -0.13391   0.59294
  13        2PX         0.00000  -0.00000   0.50893
  14        2PY         0.00000   0.00000   0.00000   0.50893
  15        2PZ        -0.00894   0.09086   0.00000  -0.00000   0.63312
  16 4   F  1S         -0.00189   0.02710   0.00000  -0.00000   0.03777
  17        2S          0.02512  -0.20244  -0.00000  -0.00000  -0.29847
  18        2PX         0.00000  -0.00000  -0.06740   0.00000   0.00000
  19        2PY        -0.00000   0.00000  -0.00000  -0.06740   0.00000
  20        2PZ         0.01242   0.06245   0.00000   0.00000   0.08417
                          16        17        18        19        20
  16 4   F  1S          0.53311
  17        2S         -0.15002   0.71513
  18        2PX         0.00000  -0.00000   0.50893
  19        2PY         0.00000   0.00000   0.00000   0.50893
  20        2PZ         0.00708  -0.05432   0.00000   0.00000   0.51682
    Full Mulliken population analysis:
                           1         2         3         4         5
   1 1   Li 1S          0.53218
   2        2S         -0.03229   0.59294
   3        2PX         0.00000   0.00000   0.50893
   4        2PY         0.00000   0.00000   0.00000   0.50893
   5        2PZ         0.00000   0.00000   0.00000   0.00000   0.63312
   6 2   F  1S         -0.00000   0.00076   0.00000   0.00000   0.00183
   7        2S          0.00074  -0.05527   0.00000   0.00000  -0.12489
   8        2PX         0.00000   0.00000  -0.00893   0.00000   0.00000
   9        2PY         0.00000   0.00000   0.00000  -0.00893   0.00000
  10        2PZ        -0.00062  -0.00614   0.00000   0.00000  -0.01006
  11 3   Li 1S          0.53218  -0.03229   0.00000   0.00000   0.00000
  12        2S         -0.03229   0.59294   0.00000   0.00000   0.00000
  13        2PX         0.00000   0.00000   0.50893   0.00000   0.00000
  14        2PY         0.00000   0.00000   0.00000   0.50893   0.00000
  15        2PZ         0.00000   0.00000   0.00000   0.00000   0.63312
  16 4   F  1S         -0.00000   0.00076   0.00000   0.00000   0.00183
  17        2S          0.00074  -0.05527   0.00000   0.00000  -0.12489
  18        2PX         0.00000   0.00000  -0.00893   0.00000   0.00000
  19        2PY         0.00000   0.00000   0.00000  -0.00893   0.00000
  20        2PZ        -0.00062  -0.00614   0.00000   0.00000  -0.01006
                           6         7         8         9        10
   6 2   F  1S          0.53311
   7        2S         -0.03570   0.71513
   8        2PX         0.00000   0.00000   0.50893
   9        2PY         0.00000   0.00000   0.00000   0.50893
  10        2PZ         0.00000   0.00000   0.00000   0.00000   0.51682
  11 3   Li 1S         -0.00000   0.00074   0.00000   0.00000  -0.00062
  12        2S          0.00076  -0.05527   0.00000   0.00000  -0.00614
  13        2PX         0.00000   0.00000  -0.00893   0.00000   0.00000
  14        2PY         0.00000   0.00000   0.00000  -0.00893   0.00000
  15        2PZ         0.00183  -0.12489   0.00000   0.00000  -0.01006
  16 4   F  1S          0.53311  -0.03570   0.00000   0.00000   0.00000
  17        2S         -0.03570   0.71513   0.00000   0.00000   0.00000
  18        2PX         0.00000   0.00000   0.50893   0.00000   0.00000
  19        2PY         0.00000   0.00000   0.00000   0.50893   0.00000
  20        2PZ         0.00000   0.00000   0.00000   0.00000   0.51682
                          11        12        13        14        15
  11 3   Li 1S          0.53218
  12        2S         -0.03229   0.59294
  13        2PX         0.00000   0.00000   0.50893
  14        2PY         0.00000   0.00000   0.00000   0.50893
  15        2PZ         0.00000   0.00000   0.00000   0.00000   0.63312
  16 4   F  1S         -0.00000   0.00076   0.00000   0.00000   0.00183
  17        2S          0.00074  -0.05527   0.00000   0.00000  -0.12489
  18        2PX         0.00000   0.00000  -0.00893   0.00000   0.00000
  19        2PY         0.00000   0.00000   0.00000  -0.00893   0.00000
  20        2PZ        -0.00062  -0.00614   0.00000   0.00000  -0.01006
                          16        17        18        19        20
  16 4   F  1S          0.53311
  17        2S         -0.03570   0.71513
  18        2PX         0.00000   0.00000   0.50893
  19        2PY         0.00000   0.00000   0.00000   0.50893
  20        2PZ         0.00000   0.00000   0.00000   0.00000   0.51682
     Gross orbital populations:
                           1
   1 1   Li 1S          1.00000
   2        2S          1.00000
   3        2PX         1.00000
   4        2PY         1.00000
   5        2PZ         1.00000
   6 2   F  1S          1.00000
   7        2S          1.00000
   8        2PX         1.00000
   9        2PY         1.00000
  10        2PZ         1.00000
  11 3   Li 1S          1.00000
  12        2S          1.00000
  13        2PX         1.00000
  14        2PY         1.00000
  15        2PZ         1.00000
  16 4   F  1S          1.00000
  17        2S          1.00000
  18        2PX         1.00000
  19        2PY         1.00000
  20        2PZ         1.00000
          Condensed to atoms (all electrons):
               1          2          3          4
     1  Li   2.711509  -0.211509   2.711509  -0.211509
     2  F   -0.211509   2.711509  -0.211509   2.711509
     3  Li   2.711509  -0.211509   2.711509  -0.211509
     4  F   -0.211509   2.711509  -0.211509   2.711509
 Mulliken charges:
               1
     1  Li  -2.000000
     2  F    4.000000
     3  Li  -2.000000
     4  F    4.000000
 Sum of Mulliken charges =   4.00000
 Mulliken charges with hydrogens summed into heavy atoms:
               1
     1  Li  -2.000000
     2  F    4.000000
     3  Li  -2.000000
     4  F    4.000000
 N-N=                Inf E-N=-6.197071700340D+02  KE= 1.115743176433D+02
 Orbital energies and kinetic energies (alpha):
                                 1                 2
   1         O               -82.963269         38.684446
   2         O                -6.475416          3.740810
   3         O                -4.377082          2.203955
   4         O                -3.355578          3.247846
   5         O                -3.318947          3.289582
   6         O                -3.318947          3.289582
   7         O                -0.349705          0.272912
   8         O                -0.231561          0.393805
   9         O                -0.228709          0.332111
  10         O                -0.228709          0.332111
 Total kinetic energy from orbitals= 1.115954165282D+02
 No NMR shielding tensors so no spin-rotation constants.
 Leave Link  601 at Thu May 17 16:16:42 2018, MaxMem=   104857600 cpu:               0.0 elap:               0.0
 (Enter /usr/remote/gaussian/g16/l9999.exe)

 This type of calculation cannot be archived.


 UNLESS WE CHANGE DIRECTIONS, WE WILL WIND UP WHERE WE ARE HEADED.
     -- CONFUCIUS
 Job cpu time:       0 days  0 hours  0 minutes  0.6 seconds.
 Elapsed time:       0 days  0 hours  0 minutes  0.5 seconds.
 File lengths (MBytes):  RWF=      6 Int=      0 D2E=      0 Chk=      1 Scr=      1
 Normal termination of Gaussian 16 at Thu May 17 16:16:42 2018.
